chemcompute.org
{'UTCtimestamp': '2022-10-04T20:44:19.812653', 'cluster': 'jetstream2', 'clusterJobNumber': '120771', 'status': 'RUNNING', 'nodeList': 'chemcompute-node-0'}
----- GAMESS execution script 'rungms' -----
This job is running on host chemcompute-node-0.novalocal
under operating system Linux at Tue Oct 4 20:44:23 UTC 2022
SLURM has assigned the following compute nodes to this run:
Available scratch disk space (Kbyte units) at beginning of the job is
Filesystem     1K-blocks     Used Available Use% Mounted on
/dev/sda1       62903276 11810332  51092944  19% /
GAMESS temporary binary files will be written to /scratch/120771
GAMESS supplementary output files will be written to /data/slurm/46/460725
Copying input file 460725.inp to your run's scratch directory...
The generated host list is
chemcompute-node-0.novalocal

 Distributed Data Interface kickoff program.
 Initiating 1 compute processes on 1 nodes to run the following command:
 /data/gamess-2019R1-avx2-ddi/gamess.00.x 460725 

          ******************************************************
          *         GAMESS VERSION = 30 JUN 2019 (R1)          *
          *             FROM IOWA STATE UNIVERSITY             *
          * M.W.SCHMIDT, K.K.BALDRIDGE, J.A.BOATZ, S.T.ELBERT, *
          *   M.S.GORDON, J.H.JENSEN, S.KOSEKI, N.MATSUNAGA,   *
          *          K.A.NGUYEN, S.J.SU, T.L.WINDUS,           *
          *       TOGETHER WITH M.DUPUIS, J.A.MONTGOMERY       *
          *         J.COMPUT.CHEM.  14, 1347-1363(1993)        *
          **************** 64 BIT INTEL VERSION ****************

  SINCE 1993, STUDENTS AND POSTDOCS WORKING AT IOWA STATE UNIVERSITY
  AND ALSO IN THEIR VARIOUS JOBS AFTER LEAVING ISU HAVE MADE IMPORTANT
  CONTRIBUTIONS TO THE CODE:
     IVANA ADAMOVIC, CHRISTINE AIKENS, YURI ALEXEEV, POOJA ARORA,
     ANDREY ASADCHEV, ROB BELL, PRADIPTA BANDYOPADHYAY, JONATHAN BENTZ,
     COLLEEN BERTONI, BRETT BODE, KURT BRORSEN, CALEB CARLIN, GALINA CHABAN,
     WEI CHEN, CHEOL HO CHOI, PAUL DAY, ALBERT DEFUSCO, NUWAN DESILVA,
     TIM DUDLEY, DMITRI FEDOROV, ALEX FINDLATER, GRAHAM FLETCHER, 
     MARK FREITAG, KURT GLAESEMANN, ANASTASIA GUNINA,
     DAN KEMP, GRANT MERRILL, NORIYUKI MINEZAWA, JONATHAN MULLIN,
     TAKESHI NAGATA, SEAN NEDD, HEATHER NETZLOFF, BOSILJKA NJEGIC, RYAN OLSON,
     MIKE PAK, BUU PHAM,
     SPENCER PRUITT, LUKE ROSKOP, JIM SHOEMAKER, LYUDMILA SLIPCHENKO,
     TONY SMITH, SAROM SOK LEANG, JIE SONG, TETSUYA TAKETSUGU, SIMON WEBB,
     PENG XU, SOOHAENG YOO, FEDERICO ZAHARIEV

  ADDITIONAL CODE HAS BEEN PROVIDED BY COLLABORATORS IN OTHER GROUPS:
     IOWA STATE UNIVERSITY:
          JOE IVANIC, AARON WEST, LAIMUTIS BYTAUTAS, KLAUS RUEDENBERG
     UNIVERSITY OF TOKYO: KIMIHIKO HIRAO, TAKAHITO NAKAJIMA,
          TAKAO TSUNEDA, MUNEAKI KAMIYA, SUSUMU YANAGISAWA,
          KIYOSHI YAGI, MAHITO CHIBA, SEIKEN TOKURA, NAOAKI KAWAKAMI
     UNIVERSITY OF AARHUS: FRANK JENSEN
     UNIVERSITY OF IOWA: VISVALDAS KAIRYS, HUI LI
     NATIONAL INST. OF STANDARDS AND TECHNOLOGY: WALT STEVENS, DAVID GARMER
     UNIVERSITY OF PISA: BENEDETTA MENNUCCI, JACOPO TOMASI
     UNIVERSITY OF MEMPHIS: HENRY KURTZ, PRAKASHAN KORAMBATH
     UNIVERSITY OF ALBERTA: TOBY ZENG, MARIUSZ KLOBUKOWSKI
     UNIVERSITY OF NEW ENGLAND: MARK SPACKMAN
     MIE UNIVERSITY: HIROAKI UMEDA
     NAT. INST. OF ADVANCED INDUSTRIAL SCIENCE AND TECHNOLOGY: KAZUO KITAURA
     MICHIGAN STATE UNIVERSITY:
          KAROL KOWALSKI, MARTA WLOCH, JEFFREY GOUR, JESSE LUTZ,
          WEI LI, JUN SHEN, J. EMILIANO DEUSTUA, PIOTR PIECUCH
     UNIVERSITY OF MINNESOTA:
          YINAN SHU
     UNIVERSITY OF SILESIA: MONIKA MUSIAL, STANISLAW KUCHARSKI
     FACULTES UNIVERSITAIRES NOTRE-DAME DE LA PAIX:
          OLIVIER QUINET, BENOIT CHAMPAGNE
     UNIVERSITY OF CALIFORNIA - SANTA BARBARA: BERNARD KIRTMAN
     INSTITUTE FOR MOLECULAR SCIENCE:
          KAZUYA ISHIMURA, MICHIO KATOUDA, AND SHIGERU NAGASE
     UNIVERSITY OF NOTRE DAME: ANNA POMOGAEVA, DAN CHIPMAN
     KYUSHU UNIVERSITY:
          HARUYUKI NAKANO,
          FENG LONG GU, JACEK KORCHOWIEC, MARCIN MAKOWSKI, AND YURIKO AOKI,
          HIROTOSHI MORI AND EISAKU MIYOSHI
     PENNSYLVANIA STATE UNIVERSITY:
          TZVETELIN IORDANOV, CHET SWALINA, JONATHAN SKONE,
          SHARON HAMMES-SCHIFFER
     WASEDA UNIVERSITY:
          MASATO KOBAYASHI, TOMOKO AKAMA, TSUGUKI TOUMA,
          TAKESHI YOSHIKAWA, YASUHIRO IKABATA, JUNJI SEINO,
          YUYA NAKAJIMA, HIROMI NAKAI
     NANJING UNIVERSITY: SHUHUA LI
     UNIVERSITY OF NEBRASKA:
          PEIFENG SU, DEJUN SI, NANDUN THELLAMUREGE, YALI WANG, HUI LI
     UNIVERSITY OF ZURICH: ROBERTO PEVERATI, KIM BALDRIDGE
     N. COPERNICUS UNIVERSITY AND JACKSON STATE UNIVERSITY:
          MARIA BARYSZ
     UNIVERSITY OF COPENHAGEN: Jimmy Kromann, CASPER STEINMANN
     TOKYO INSTITUTE OF TECHNOLOGY: HIROYA NAKATA
     NAGOYA UNIVERSITY: YOSHIO NISHIMOTO, STEPHAN IRLE
     MOSCOW STATE UNIVERSITY: VLADIMIR MIRONOV
     A.N.NESMEYANOV INSTITUTE OF ORGANOELEMENT COMPOUNDS OF RUSSIAN ACADEMY OF SCIENCES:
          IGOR S. GERASIMOV

 EXECUTION OF GAMESS BEGUN Tue Oct  4 20:44:23 2022

            ECHO OF THE FIRST FEW INPUT CARDS -
 INPUT CARD>!                                                                               
 INPUT CARD>!   GAMESS Calculation input file                                               
 INPUT CARD>!   molecula de prueba L.R                                                      
 INPUT CARD>!                                                                               
 INPUT CARD> $CONTRL SCFTYP=RHF MAXIT=200 RUNTYP=OPTIMIZE                                   
 INPUT CARD>         COORD=UNIQUE MULT=1                                                    
 INPUT CARD>         ICHARG=0                                                               
 INPUT CARD>         DFTTYP=B3LYP                                                           
 INPUT CARD>         MOLPLT=.FALSE. PLTORB=.FALSE.  $END                                    
 INPUT CARD> $SYSTEM TIMLIM=2879 MWORDS=250  $END                                           
 INPUT CARD>                                                                                
 INPUT CARD> $FORCE METHOD=SEMINUM NVIB=2 $END                                              
 INPUT CARD> $STATPT OPTTOL=0.0005 NSTEP=999 $END                                           
 INPUT CARD> $STATPT IHREP=0 HSSEND=.TRUE.  $END                                            
 INPUT CARD>                                                                                
 INPUT CARD> $DFT    METHOD=GRID  NLEB=590  $END                                            
 INPUT CARD>                                                                                
 INPUT CARD> $BASIS  GBASIS=N31 NGAUSS=6                                                    
 INPUT CARD>         NDFUNC=1   NPFUNC=0  $END                                              
 INPUT CARD>                                                                                
 INPUT CARD> $SCF    DIRSCF=.T. $END                                                        
 INPUT CARD> $GUESS  GUESS=HUCKEL  $END                                                     
 INPUT CARD>                                                                                
 INPUT CARD> $DATA                                                                          
 INPUT CARD>   molecula de prueba L.R                                                       
 INPUT CARD>  Cs                                                                            
 INPUT CARD>                                                                                
 INPUT CARD>C     6.0     1.14     0.55    -0.00                                            
 INPUT CARD>C     6.0    -0.20     0.44     0.00                                            
 INPUT CARD>C     6.0    -0.88    -0.89     0.00                                            
 INPUT CARD>H     1.0     1.76    -0.33    -0.00                                            
 INPUT CARD>H     1.0     1.62     1.52    -0.00                                            
 INPUT CARD>H     1.0    -0.82     1.33     0.00                                            
 INPUT CARD>H     1.0    -0.61    -1.46     0.89                                            
 INPUT CARD>H     1.0    -1.97    -0.76     0.00                                            
 INPUT CARD> $END                                                                           
 INPUT CARD>                                                                                
 INPUT CARD>                                                                                
 INPUT CARD>! Customizations after this line are persisted when using Do More Calculations  
  250000000 WORDS OF MEMORY AVAILABLE

     BASIS OPTIONS
     -------------
     GBASIS=N31          IGAUSS=       6      POLAR=POPN31  
     NDFUNC=       1     NFFUNC=       0     DIFFSP=       F
     NPFUNC=       0      DIFFS=       F     BASNAM=        


     RUN TITLE
     ---------
    molecula de prueba L.R                                                       

 THE POINT GROUP OF THE MOLECULE IS CS      
 THE ORDER OF THE PRINCIPAL AXIS IS     0

 ATOM      ATOMIC                      COORDINATES (BOHR)
           CHARGE         X                   Y                   Z
 C           6.0     2.1542876260        1.0393492932        0.0000000000
 C           6.0    -0.3779451975        0.8314794346        0.0000000000
 C           6.0    -1.6629588692       -1.6818561291        0.0000000000
 H           1.0     3.3259177384       -0.6236095759        0.0000000000
 H           1.0     3.0613561001        2.8723835013        0.0000000000
 H           1.0    -1.5495753099        2.5133355637        0.0000000000
 H           1.0    -1.1527328525       -2.7589999421       -1.6818561291
 H           1.0    -1.1527328525       -2.7589999421        1.6818561291
 H           1.0    -3.7227601958       -1.4361917507        0.0000000000

          INTERNUCLEAR DISTANCES (ANGS.)
          ------------------------------

                1 C          2 C          3 C          4 H          5 H     

   1 C       0.0000000    1.3445073 *  2.4807257 *  1.0764757 *  1.0822661 *
   2 C       1.3445073 *  0.0000000    1.4937537 *  2.1058253 *  2.1163176 *
   3 C       2.4807257 *  1.4937537 *  0.0000000    2.6987404 *  3.4724775  
   4 H       1.0764757 *  2.1058253 *  2.6987404 *  0.0000000    1.8552897 *
   5 H       1.0822661 *  2.1163176 *  3.4724775    1.8552897 *  0.0000000  
   6 H       2.1095023 *  1.0846658 *  2.2208107 *  3.0678983    2.4473864 *
   7 H       2.8097509 *  2.1378026 *  1.0908254 *  2.7723456 *  3.8269309  
   8 H       2.8097509 *  2.1378026 *  1.0908254 *  2.7723456 *  3.8269309  
   9 H       3.3746407    2.1384340 *  1.0977249 *  3.7547037    4.2528226  

                6 H          7 H          8 H          9 H     

   1 C       2.1095023 *  2.8097509 *  2.8097509 *  3.3746407  
   2 C       1.0846658 *  2.1378026 *  2.1378026 *  2.1384340 *
   3 C       2.2208107 *  1.0908254 *  1.0908254 *  1.0977249 *
   4 H       3.0678983    2.7723456 *  2.7723456 *  3.7547037  
   5 H       2.4473864 *  3.8269309    3.8269309    4.2528226  
   6 H       0.0000000    2.9360347 *  2.9360347 *  2.3854979 *
   7 H       2.9360347 *  0.0000000    1.7800000 *  1.7696610 *
   8 H       2.9360347 *  1.7800000 *  0.0000000    1.7696610 *
   9 H       2.3854979 *  1.7696610 *  1.7696610 *  0.0000000  

  * ... LESS THAN  3.000


     ATOMIC BASIS SET
     ----------------
 THE CONTRACTED PRIMITIVE FUNCTIONS HAVE BEEN UNNORMALIZED
 THE CONTRACTED BASIS FUNCTIONS ARE NOW NORMALIZED TO UNITY

  SHELL TYPE  PRIMITIVE        EXPONENT          CONTRACTION COEFFICIENT(S)

 C         

      1   S       1          3047.5248800    0.001834737132
      1   S       2           457.3695180    0.014037322813
      1   S       3           103.9486850    0.068842622264
      1   S       4            29.2101553    0.232184443216
      1   S       5             9.2866630    0.467941348435
      1   S       6             3.1639270    0.362311985337

      2   L       7             7.8682723   -0.119332419775    0.068999066591
      2   L       8             1.8812885   -0.160854151696    0.316423960957
      2   L       9             0.5442493    1.143456437840    0.744308290898

      3   L      10             0.1687145    1.000000000000    1.000000000000

      4   D      11             0.8000000    1.000000000000

 C         

      5   S      12          3047.5248800    0.001834737132
      5   S      13           457.3695180    0.014037322813
      5   S      14           103.9486850    0.068842622264
      5   S      15            29.2101553    0.232184443216
      5   S      16             9.2866630    0.467941348435
      5   S      17             3.1639270    0.362311985337

      6   L      18             7.8682723   -0.119332419775    0.068999066591
      6   L      19             1.8812885   -0.160854151696    0.316423960957
      6   L      20             0.5442493    1.143456437840    0.744308290898

      7   L      21             0.1687145    1.000000000000    1.000000000000

      8   D      22             0.8000000    1.000000000000

 C         

      9   S      23          3047.5248800    0.001834737132
      9   S      24           457.3695180    0.014037322813
      9   S      25           103.9486850    0.068842622264
      9   S      26            29.2101553    0.232184443216
      9   S      27             9.2866630    0.467941348435
      9   S      28             3.1639270    0.362311985337

     10   L      29             7.8682723   -0.119332419775    0.068999066591
     10   L      30             1.8812885   -0.160854151696    0.316423960957
     10   L      31             0.5442493    1.143456437840    0.744308290898

     11   L      32             0.1687145    1.000000000000    1.000000000000

     12   D      33             0.8000000    1.000000000000

 H         

     13   S      34            18.7311370    0.033494604338
     13   S      35             2.8253944    0.234726953484
     13   S      36             0.6401217    0.813757326146

     14   S      37             0.1612778    1.000000000000

 H         

     15   S      38            18.7311370    0.033494604338
     15   S      39             2.8253944    0.234726953484
     15   S      40             0.6401217    0.813757326146

     16   S      41             0.1612778    1.000000000000

 H         

     17   S      42            18.7311370    0.033494604338
     17   S      43             2.8253944    0.234726953484
     17   S      44             0.6401217    0.813757326146

     18   S      45             0.1612778    1.000000000000

 H         

     21   S      46            18.7311370    0.033494604338
     21   S      47             2.8253944    0.234726953484
     21   S      48             0.6401217    0.813757326146

     22   S      49             0.1612778    1.000000000000

 H         

     23   S      50            18.7311370    0.033494604338
     23   S      51             2.8253944    0.234726953484
     23   S      52             0.6401217    0.813757326146

     24   S      53             0.1612778    1.000000000000

 TOTAL NUMBER OF BASIS SET SHELLS             =   24
 NUMBER OF CARTESIAN GAUSSIAN BASIS FUNCTIONS =   57
 NUMBER OF ELECTRONS                          =   24
 CHARGE OF MOLECULE                           =    0
 SPIN MULTIPLICITY                            =    1
 NUMBER OF OCCUPIED ORBITALS (ALPHA)          =   12
 NUMBER OF OCCUPIED ORBITALS (BETA )          =   12
 TOTAL NUMBER OF ATOMS                        =    9
 THE NUCLEAR REPULSION ENERGY IS       70.8910066616

 SELECTED MURRAY-HANDY-LAMING RADIAL GRID

 LEGACY BECKE'S FUZZY CELL METHOD

 SELECTED ORIGINAL BECKE'S PARTITION FUNCTION

     LEBEDEV GRID-BASED DFT OPTIONS
     ------------------------------
     DFTTYP=B3LYP   
     NRAD  =      96     NLEB  =     590
     NRAD0 =      24     NLEB0 =     110
     SWOFF =    5.00E-03 (PURE SCF -> DFT)
     SWITCH=    3.00E-04 (COARSE -> TIGHT GRID)
     THRESH=    0.00E+00 GTHRE=    1.00E+00

 GRIMME'S EMPIRICAL DISPERSION CORRECTION= F

     $CONTRL OPTIONS
     ---------------
 SCFTYP=RHF          RUNTYP=OPTIMIZE     EXETYP=RUN     
 MPLEVL=       0     CITYP =NONE         CCTYP =NONE         VBTYP =NONE    
 DFTTYP=B3LYP        TDDFT =NONE    
 MULT  =       1     ICHARG=       0     NZVAR =       0     COORD =UNIQUE  
 PP    =NONE         RELWFN=NONE         LOCAL =NONE         NUMGRD=       F
 ISPHER=      -1     NOSYM =       0     MAXIT =     200     UNITS =ANGS    
 PLTORB=       F     MOLPLT=       F     AIMPAC=       F     FRIEND=        
 NPRINT=       7     IREST =       0     GEOM  =INPUT   
 NORMF =       0     NORMP =       0     ITOL  =      20     ICUT  =       9
 INTTYP=BEST         GRDTYP=BEST         QMTTOL= 1.0E-06

     $SYSTEM OPTIONS
     ---------------
  REPLICATED MEMORY=   250000000 WORDS (ON EVERY NODE).
 DISTRIBUTED MEMDDI=           0 MILLION WORDS IN AGGREGATE,
 MEMDDI DISTRIBUTED OVER   1 PROCESSORS IS           0 WORDS/PROCESSOR.
 TOTAL MEMORY REQUESTED ON EACH PROCESSOR=   250000000 WORDS.
 TIMLIM=        2879.00 MINUTES, OR       2.0 DAYS.
 PARALL= F  BALTYP=  DLB     KDIAG=    0  COREFL= F
 MXSEQ2=     300 MXSEQ3=     150  mem10=         0

          ----------------
          PROPERTIES INPUT
          ----------------

     MOMENTS            FIELD           POTENTIAL          DENSITY
 IEMOM =       1   IEFLD =       0   IEPOT =       0   IEDEN =       0
 WHERE =COMASS     WHERE =NUCLEI     WHERE =NUCLEI     WHERE =NUCLEI  
 OUTPUT=BOTH       OUTPUT=BOTH       OUTPUT=BOTH       OUTPUT=BOTH    
 IEMINT=       0   IEFINT=       0                     IEDINT=       0
                                                       MORB  =       0
          EXTRAPOLATION IN EFFECT
          DIIS IN EFFECT
 ORBITAL PRINTING OPTION: NPREO=     1    57     2     1

     -------------------------------
     INTEGRAL TRANSFORMATION OPTIONS
     -------------------------------
     NWORD  =            0
     CUTOFF = 1.0E-09     MPTRAN =       0
     DIRTRF =       T     AOINTS =DUP     

          ----------------------
          INTEGRAL INPUT OPTIONS
          ----------------------
 NOPK  =       1 NORDER=       0 SCHWRZ=       T

     ------------------------------------------
     THE POINT GROUP IS CS , NAXIS= 0, ORDER= 2
     ------------------------------------------

     DIMENSIONS OF THE SYMMETRY SUBSPACES ARE
 A'  =   43     A'' =   14

 ..... DONE SETTING UP THE RUN .....
 STEP CPU TIME =     0.01 TOTAL CPU TIME =          0.0 (      0.0 MIN)
 TOTAL WALL CLOCK TIME=          0.0 SECONDS, CPU UTILIZATION IS    33.33%


          -----------------------------
          STATIONARY POINT LOCATION RUN
          -----------------------------

 OBTAINING INITIAL HESSIAN, HESS=GUESS   
 CARTESIAN COORDINATE OPTIMIZATION USING BADGER'S RULE FORCE CONSTANT GUESS

          PARAMETERS CONTROLLING GEOMETRY SEARCH ARE
          METHOD =QA                  UPHESS =BFGS    
          NNEG   =         0          NFRZ   =         0
          NSTEP  =       999          IFOLOW =         1
          HESS   =GUESS               RESTAR =         F
          IHREP  =         0          HSSEND =         T
          NPRT   =         0          NPUN   =         0
          OPTTOL = 5.000E-04          RMIN   = 1.500E-03
          RMAX   = 1.000E-01          RLIM   = 7.000E-02
          DXMAX  = 3.000E-01          PURIFY =         F
          MOVIE  =         F          TRUPD  =         T
          TRMAX  = 5.000E-01          TRMIN  = 5.000E-02
          ITBMAT =         5          STPT   =         F
          STSTEP = 1.000E-02          PROJCT=          T

 BEGINNING GEOMETRY SEARCH POINT NSERCH=   0 ...

 COORDINATES OF SYMMETRY UNIQUE ATOMS (ANGS)
   ATOM   CHARGE       X              Y              Z
 ------------------------------------------------------------
 C           6.0   1.1400000000   0.5500000000   0.0000000000
 C           6.0  -0.2000000000   0.4400000000   0.0000000000
 C           6.0  -0.8800000000  -0.8900000000   0.0000000000
 H           1.0   1.7600000000  -0.3300000000   0.0000000000
 H           1.0   1.6200000000   1.5200000000   0.0000000000
 H           1.0  -0.8200000000   1.3300000000   0.0000000000
 H           1.0  -0.6100000000  -1.4600000000   0.8900000000
 H           1.0  -1.9700000000  -0.7600000000   0.0000000000
 COORDINATES OF ALL ATOMS ARE (ANGS)
   ATOM   CHARGE       X              Y              Z
 ------------------------------------------------------------
 C           6.0   1.1400000000   0.5500000000   0.0000000000
 C           6.0  -0.2000000000   0.4400000000   0.0000000000
 C           6.0  -0.8800000000  -0.8900000000   0.0000000000
 H           1.0   1.7600000000  -0.3300000000   0.0000000000
 H           1.0   1.6200000000   1.5200000000   0.0000000000
 H           1.0  -0.8200000000   1.3300000000   0.0000000000
 H           1.0  -0.6100000000  -1.4600000000  -0.8900000000
 H           1.0  -0.6100000000  -1.4600000000   0.8900000000
 H           1.0  -1.9700000000  -0.7600000000   0.0000000000

          ********************
          1 ELECTRON INTEGRALS
          ********************
 ...... END OF ONE-ELECTRON INTEGRALS ......
 STEP CPU TIME =     0.00 TOTAL CPU TIME =          0.0 (      0.0 MIN)
 TOTAL WALL CLOCK TIME=          0.0 SECONDS, CPU UTILIZATION IS    25.00%

          -------------
          GUESS OPTIONS
          -------------
          GUESS =HUCKEL            NORB  =       0          NORDER=       0
          MIX   =       F          PRTMO =       F          PUNMO =       F
          TOLZ  = 1.0E-08          TOLE  = 1.0E-05
          SYMDEN=       F          PURIFY=       F

 INITIAL GUESS ORBITALS GENERATED BY HUCKEL   ROUTINE.
 HUCKEL GUESS REQUIRES     32010 WORDS.

 SYMMETRIES FOR INITIAL GUESS ORBITALS FOLLOW.   BOTH SET(S).
    12 ORBITALS ARE OCCUPIED (    3 CORE ORBITALS).
     4=A'       5=A'       6=A'       7=A'       8=A''      9=A'      10=A'  
    11=A'      12=A''     13=A''     14=A'      15=A'      16=A''     17=A'  
    18=A'      19=A'      20=A'      21=A'      22=A'  
 ...... END OF INITIAL ORBITAL SELECTION ......
 STEP CPU TIME =     0.01 TOTAL CPU TIME =          0.0 (      0.0 MIN)
 TOTAL WALL CLOCK TIME=          0.1 SECONDS, CPU UTILIZATION IS    28.57%

                    ----------------------
                    AO INTEGRAL TECHNOLOGY
                    ----------------------
     S,P,L SHELL ROTATED AXIS INTEGRALS, REPROGRAMMED BY
        KAZUYA ISHIMURA (IMS) AND JOSE SIERRA (SYNSTAR).
     S,P,D,L SHELL ROTATED AXIS INTEGRALS PROGRAMMED BY
        KAZUYA ISHIMURA (INSTITUTE FOR MOLECULAR SCIENCE).
     S,P,D,F,G SHELL TO TOTAL QUARTET ANGULAR MOMENTUM SUM 5,
        ERIC PROGRAM BY GRAHAM FLETCHER (ELORET AND NASA ADVANCED
        SUPERCOMPUTING DIVISION, AMES RESEARCH CENTER).
     S,P,D,F,G,L SHELL GENERAL RYS QUADRATURE PROGRAMMED BY
        MICHEL DUPUIS (PACIFIC NORTHWEST NATIONAL LABORATORY).

          --------------------
          2 ELECTRON INTEGRALS
          --------------------

 DIRECT SCF METHOD SKIPS INTEGRAL STORAGE ON DISK.
 DIRECT TRANSFORMATION SKIPS AO INTEGRAL STORAGE ON DISK.
  ...... END OF TWO-ELECTRON INTEGRALS .....
 STEP CPU TIME =     0.01 TOTAL CPU TIME =          0.0 (      0.0 MIN)
 TOTAL WALL CLOCK TIME=          0.1 SECONDS, CPU UTILIZATION IS    37.50%

          --------------------------
             R-B3LYP SCF CALCULATION
          --------------------------

     NUCLEAR ENERGY =        70.8910066616
     MAXIT =  200     NPUNCH=    2
     EXTRAP=T  DAMP=F  SHIFT=F  RSTRCT=F  DIIS=T  DEM=F  SOSCF=F
         DENSITY MATRIX CONVERGENCE THRESHOLD=  2.00E-05
     COARSE -> FINE DFT GRID SWITCH THRESHOLD=  3.00E-04 (SWITCH IN $DFT)
                   HF -> DFT SWITCH THRESHOLD=  5.00E-03 (SWOFF IN $DFT)
     MEMORY REQUIRED FOR RHF ITERS=    668725 WORDS.

 DIRECT SCF CALCULATION, SCHWRZ=T   FDIFF=T,  DIRTHR=  0.00E+00 NITDIR=10
 SCHWARZ INEQUALITY OVERHEAD:      1653 INTEGRALS, T=        0.00

 DFT CODE IS SWITCHING FROM THE FINE GRID NRAD= 96,  NLEB=  590
                      TO THE COARSE GRID NRAD0= 24, NLEB0=  110

     EXCHANGE FUNCTIONAL   =B88&HFX   
     CORRELATION FUNCTIONAL=LYP88&VWN5
     DFT THRESHOLD         =.785E-08
     GRID CHANGE THRESHOLD =.300E-03
 FOR AN EULER-MACLAURIN QUADRATURE USING  96 RADIAL POINTS:
 SMALLEST GAUSSIAN PRIMITIVE EXPONENT=        0.1612777588 OF TYPE -S-
 ON ATOM NUMBER   4 HAS RADIAL NORMALIZATION=  1.000000
  LARGEST GAUSSIAN PRIMITIVE EXPONENT=     3047.5248800000 OF TYPE -S-
 ON ATOM NUMBER   1 HAS RADIAL NORMALIZATION=  1.000000
 DFT IS SWITCHED OFF, PERFORMING PURE SCF UNTIL SWOFF THRESHOLD IS REACHED.

                                                                                   NONZERO     BLOCKS
 ITER EX DEM     TOTAL ENERGY        E CHANGE  DENSITY CHANGE    DIIS ERROR      INTEGRALS    SKIPPED
          * * *   INITIATING DIIS PROCEDURE   * * *
   1  0  0     -116.7931000673  -116.7931000673   0.130241245   0.407608539         720297       1217
   2  1  0     -117.0483355072    -0.2552354399   0.083011195   0.074934687         719847       1417
   3  2  0     -117.0628116316    -0.0144761244   0.021185478   0.025676723         718994       1685
   4  3  0     -117.0660133917    -0.0032017600   0.007372070   0.005830594         717025       2023
   5  4  0     -117.0662078748    -0.0001944832   0.003317356   0.001985337         714965       2273
 CONVERGED TO SWOFF, SO DFT CALCULATION IS NOW SWITCHED ON.
          * * *   INITIATING DIIS PROCEDURE   * * *
   6  5  0     -117.8011911499    -0.7349832751   0.058407578   0.079294883         720294       1223
   7  6  0     -117.8123012865    -0.0111101366   0.029929984   0.026380149         719270       1615
   8  7  0     -117.8126469746    -0.0003456882   0.016087909   0.024936251         717727       1835
   9  8  0     -117.8143297107    -0.0016827361   0.004446874   0.003770615         716353       2045
  10  9  0     -117.8143726351    -0.0000429244   0.000838917   0.000619666         709896       2929
  11 10  0     -117.8143745661    -0.0000019310   0.000128204   0.000093375         704395       3542
 DFT CODE IS SWITCHING BACK TO THE FINE GRID
          * * *   INITIATING DIIS PROCEDURE   * * *
  12 11  0     -117.8155446516    -0.0011700855   0.001607111   0.000683740         720316       1210
  13 12  0     -117.8155476316    -0.0000029800   0.000211196   0.000133738         710087       2997
  14 13  0     -117.8155476503    -0.0000000187   0.000146808   0.000113980         700315       4001
  15 14  0     -117.8155476945    -0.0000000442   0.000052718   0.000043410         692320       4683
  16 15  0     -117.8155477006    -0.0000000061   0.000019103   0.000016615         681165       5630
  17 16  0     -117.8155477016    -0.0000000010   0.000001226   0.000001066         667051       7012

          -----------------
          DENSITY CONVERGED
          -----------------
     TIME TO FORM FOCK OPERATORS=       6.2 SECONDS (       0.4 SEC/ITER)
     FOCK TIME ON FIRST ITERATION=       0.0, LAST ITERATION=       0.9
     TIME TO SOLVE SCF EQUATIONS=       0.1 SECONDS (       0.0 SEC/ITER)

 FINAL R-B3LYP ENERGY IS     -117.8155477016 AFTER  17 ITERATIONS
 DFT EXCHANGE + CORRELATION ENERGY =       -14.8746901573
 TOTAL ELECTRON NUMBER             =        23.9999992646

          ------------
          EIGENVECTORS
          ------------

                      1          2          3          4          5
                  -10.1812   -10.1728   -10.1665    -0.7768    -0.6739
                     A'         A'         A'         A'         A'  
    1  C  1  S    0.027093  -0.001374   0.992335  -0.112950   0.138213
    2  C  1  S    0.000804  -0.000249   0.049325   0.215469  -0.269551
    3  C  1  X    0.000362   0.000052   0.000032  -0.084421   0.026716
    4  C  1  Y    0.000051   0.000083  -0.000033  -0.017282  -0.017360
    5  C  1  Z    0.000000   0.000000   0.000000   0.000000   0.000000
    6  C  1  S    0.004594   0.000539  -0.013380   0.164515  -0.224024
    7  C  1  X   -0.001876  -0.000715   0.001128  -0.009850  -0.010103
    8  C  1  Y   -0.000877  -0.000144   0.000172  -0.005685  -0.003176
    9  C  1  Z    0.000000   0.000000   0.000000   0.000000   0.000000
   10  C  1 XX   -0.000570   0.000117  -0.009248   0.007204  -0.001668
   11  C  1 YY   -0.000448   0.000047  -0.009439  -0.000092  -0.003964
   12  C  1 ZZ   -0.000392  -0.000091  -0.009784  -0.012118   0.013677
   13  C  1 XY    0.000023  -0.000009   0.000018   0.001539   0.001491
   14  C  1 XZ    0.000000   0.000000   0.000000   0.000000   0.000000
   15  C  1 YZ    0.000000   0.000000   0.000000   0.000000   0.000000
   16  C  2  S    0.992283  -0.016082  -0.027579  -0.152723   0.034471
   17  C  2  S    0.049222  -0.000975  -0.001867   0.296716  -0.069272
   18  C  2  X   -0.000085   0.000073  -0.000398   0.038551  -0.160711
   19  C  2  Y   -0.000165   0.000178  -0.000004  -0.041010  -0.103965
   20  C  2  Z    0.000000   0.000000   0.000000   0.000000   0.000000
   21  C  2  S   -0.014617   0.004045   0.004885   0.196170  -0.053166
   22  C  2  X   -0.000730  -0.001647   0.002137  -0.009399  -0.031567
   23  C  2  Y    0.001431  -0.002047   0.000211   0.003064  -0.029291
   24  C  2  Z    0.000000   0.000000   0.000000   0.000000   0.000000
   25  C  2 XX   -0.009058  -0.000072  -0.000040   0.003576  -0.008200
   26  C  2 YY   -0.009304  -0.000182   0.000021   0.002542   0.011903
   27  C  2 ZZ   -0.009549   0.000017   0.000136  -0.015661   0.003046
   28  C  2 XY    0.000013  -0.000173  -0.000026   0.001695   0.006578
   29  C  2 XZ    0.000000   0.000000   0.000000   0.000000   0.000000
   30  C  2 YZ    0.000000   0.000000   0.000000   0.000000   0.000000
   31  C  3  S    0.015897   0.992763   0.000907  -0.119579  -0.146805
   32  C  3  S    0.000646   0.050126  -0.000066   0.225165   0.287447
   33  C  3  X   -0.000042   0.000057  -0.000047   0.033923  -0.029443
   34  C  3  Y   -0.000299   0.000076  -0.000021   0.052328  -0.022859
   35  C  3  Z    0.000000   0.000000   0.000000   0.000000   0.000000
   36  C  3  S    0.003306  -0.017342  -0.000167   0.195630   0.264526
   37  C  3  X    0.000715  -0.000474   0.000118   0.013610  -0.017870
   38  C  3  Y    0.001819  -0.001064   0.000139   0.006518  -0.013097
   39  C  3  Z    0.000000   0.000000   0.000000   0.000000   0.000000
   40  C  3 XX   -0.000291  -0.009179   0.000040   0.000267  -0.000368
   41  C  3 YY   -0.000598  -0.009219   0.000061   0.003495  -0.004257
   42  C  3 ZZ   -0.000175  -0.009145  -0.000037  -0.001836   0.002876
   43  C  3 XY   -0.000132  -0.000024   0.000046   0.004263  -0.005996
   44  C  3 XZ    0.000000   0.000000   0.000000   0.000000   0.000000
   45  C  3 YZ    0.000000   0.000000   0.000000   0.000000   0.000000
   46  H  4  S   -0.000133  -0.000088  -0.000341   0.059035  -0.087270
   47  H  4  S   -0.000364   0.000233   0.002241   0.010391  -0.021729
   48  H  5  S   -0.000039  -0.000013  -0.000348   0.052378  -0.099812
   49  H  5  S    0.000237   0.000380   0.002158   0.009890  -0.031027
   50  H  6  S   -0.000367  -0.000132  -0.000054   0.075829  -0.021472
   51  H  6  S    0.001868  -0.000110  -0.000048   0.009993  -0.003736
   52  H  7  S   -0.000158  -0.000045  -0.000028   0.065824   0.104190
   53  H  7  S    0.000428   0.002711   0.000075   0.009214   0.030306
   54  H  8  S   -0.000158  -0.000045  -0.000028   0.065824   0.104190
   55  H  8  S    0.000428   0.002711   0.000075   0.009214   0.030306
   56  H  9  S   -0.000102  -0.000026   0.000011   0.062598   0.111398
   57  H  9  S   -0.000116   0.002674   0.000211   0.013877   0.032070

                      6          7          8          9         10
                   -0.5472    -0.4575    -0.4125    -0.4103    -0.3586
                     A'         A'         A'         A''        A'  
    1  C  1  S    0.090054  -0.018116   0.000564   0.000000   0.027810
    2  C  1  S   -0.181263   0.038054  -0.002454   0.000000  -0.058835
    3  C  1  X   -0.186106   0.165222   0.272314   0.000000   0.252655
    4  C  1  Y    0.045458   0.279648  -0.215255   0.000000   0.119669
    5  C  1  Z    0.000000   0.000000   0.000000   0.065367   0.000000
    6  C  1  S   -0.171506   0.039902   0.026479   0.000000  -0.089375
    7  C  1  X   -0.066389   0.060487   0.096127   0.000000   0.100055
    8  C  1  Y    0.012250   0.109697  -0.081567   0.000000   0.040105
    9  C  1  Z    0.000000   0.000000   0.000000   0.037512   0.000000
   10  C  1 XX    0.009392  -0.005572  -0.002367   0.000000  -0.002860
   11  C  1 YY   -0.013626   0.009799   0.010216   0.000000   0.012640
   12  C  1 ZZ    0.008199  -0.001371  -0.000485   0.000000   0.001624
   13  C  1 XY    0.000931   0.003596  -0.011777   0.000000   0.005285
   14  C  1 XZ    0.000000   0.000000   0.000000  -0.005031   0.000000
   15  C  1 YZ    0.000000   0.000000   0.000000  -0.001770   0.000000
   16  C  2  S   -0.123037   0.032978  -0.000136   0.000000  -0.000850
   17  C  2  S    0.253011  -0.073048   0.002059   0.000000   0.000177
   18  C  2  X   -0.122420  -0.151643  -0.266618   0.000000  -0.274825
   19  C  2  Y    0.115701   0.229329  -0.121391   0.000000  -0.033555
   20  C  2  Z    0.000000   0.000000   0.000000   0.147233   0.000000
   21  C  2  S    0.232406  -0.046376   0.011035   0.000000   0.029702
   22  C  2  X   -0.056366  -0.035508  -0.095598   0.000000  -0.075547
   23  C  2  Y    0.040900   0.063849  -0.049294   0.000000   0.000341
   24  C  2  Z    0.000000   0.000000   0.000000   0.071491   0.000000
   25  C  2 XX   -0.006145   0.004930   0.001525   0.000000  -0.014034
   26  C  2 YY    0.002886   0.005325   0.002542   0.000000   0.017885
   27  C  2 ZZ   -0.010510   0.001614  -0.000862   0.000000   0.000109
   28  C  2 XY   -0.009879   0.002167  -0.004167   0.000000  -0.005034
   29  C  2 XZ    0.000000   0.000000   0.000000  -0.001855   0.000000
   30  C  2 YZ    0.000000   0.000000   0.000000  -0.010086   0.000000
   31  C  3  S    0.051822  -0.014037   0.006918   0.000000  -0.007507
   32  C  3  S   -0.102910   0.029085  -0.009910   0.000000   0.018569
   33  C  3  X    0.015893  -0.236825  -0.099953   0.000000   0.362483
   34  C  3  Y    0.156564  -0.050385   0.275712   0.000000  -0.015743
   35  C  3  Z    0.000000   0.000000   0.000000   0.431456   0.000000
   36  C  3  S   -0.116898   0.026864  -0.033677   0.000000   0.033718
   37  C  3  X    0.003141  -0.115974  -0.044912   0.000000   0.168013
   38  C  3  Y    0.055531  -0.015975   0.123821   0.000000   0.000782
   39  C  3  Z    0.000000   0.000000   0.000000   0.199006   0.000000
   40  C  3 XX   -0.001616   0.006376   0.006617   0.000000  -0.026598
   41  C  3 YY    0.011235  -0.003415   0.004030   0.000000   0.012625
   42  C  3 ZZ   -0.007602  -0.001503  -0.014207   0.000000   0.010204
   43  C  3 XY    0.006910  -0.010278   0.003214   0.000000  -0.000567
   44  C  3 XZ    0.000000   0.000000   0.000000   0.012426   0.000000
   45  C  3 YZ    0.000000   0.000000   0.000000  -0.017793   0.000000
   46  H  4  S   -0.150926  -0.053179   0.205015   0.000000   0.008155
   47  H  4  S   -0.082017  -0.035612   0.161466   0.000000   0.023410
   48  H  5  S   -0.100735   0.200319  -0.041229   0.000000   0.123888
   49  H  5  S   -0.049849   0.140882  -0.034112   0.000000   0.129609
   50  H  6  S    0.186598   0.120428   0.037666   0.000000   0.094219
   51  H  6  S    0.093159   0.105854   0.036868   0.000000   0.088635
   52  H  7  S   -0.082332  -0.004281  -0.111036  -0.220995   0.078766
   53  H  7  S   -0.042693  -0.002197  -0.082290  -0.177320   0.072724
   54  H  8  S   -0.082332  -0.004281  -0.111036   0.220995   0.078766
   55  H  8  S   -0.042693  -0.002197  -0.082290   0.177320   0.072724
   56  H  9  S   -0.041094   0.144734   0.075231   0.000000  -0.247283
   57  H  9  S   -0.018911   0.098095   0.067535   0.000000  -0.234877

                     11         12         13         14         15
                   -0.3414    -0.2413     0.0225     0.1145     0.1351
                     A'         A''        A''        A'         A'  
    1  C  1  S    0.005469   0.000000   0.000000  -0.050684  -0.002408
    2  C  1  S   -0.011545   0.000000   0.000000   0.099312   0.026738
    3  C  1  X    0.036420   0.000000   0.000000   0.095048   0.012889
    4  C  1  Y   -0.251063   0.000000   0.000000   0.068352  -0.136413
    5  C  1  Z    0.000000   0.403801   0.389232   0.000000   0.000000
    6  C  1  S   -0.016509   0.000000   0.000000   0.577740  -0.054916
    7  C  1  X    0.001868   0.000000   0.000000   0.473114   0.091432
    8  C  1  Y   -0.078373   0.000000   0.000000   0.148192  -0.330042
    9  C  1  Z    0.000000   0.300516   0.591318   0.000000   0.000000
   10  C  1 XX    0.003116   0.000000   0.000000   0.004030   0.000365
   11  C  1 YY   -0.002341   0.000000   0.000000  -0.010359   0.008932
   12  C  1 ZZ    0.000414   0.000000   0.000000  -0.001174  -0.002815
   13  C  1 XY   -0.026604   0.000000   0.000000  -0.014820   0.005385
   14  C  1 XZ    0.000000  -0.014577   0.023668   0.000000   0.000000
   15  C  1 YZ    0.000000  -0.000876   0.000247   0.000000   0.000000
   16  C  2  S    0.007863   0.000000   0.000000  -0.051810   0.044014
   17  C  2  S   -0.024492   0.000000   0.000000   0.084981  -0.020942
   18  C  2  X   -0.031272   0.000000   0.000000  -0.117650   0.095394
   19  C  2  Y    0.327390   0.000000   0.000000   0.149450  -0.095675
   20  C  2  Z    0.000000   0.373520  -0.422064   0.000000   0.000000
   21  C  2  S   -0.005444   0.000000   0.000000   0.941838  -0.743482
   22  C  2  X   -0.025632   0.000000   0.000000  -0.100146   0.340287
   23  C  2  Y    0.096318   0.000000   0.000000   0.411317  -0.045799
   24  C  2  Z    0.000000   0.272252  -0.566221   0.000000   0.000000
   25  C  2 XX    0.002014   0.000000   0.000000   0.005541   0.003193
   26  C  2 YY    0.004677   0.000000   0.000000  -0.006134   0.018567
   27  C  2 ZZ    0.000089   0.000000   0.000000  -0.004475  -0.002717
   28  C  2 XY   -0.026813   0.000000   0.000000   0.013110  -0.012294
   29  C  2 XZ    0.000000   0.017461   0.024905   0.000000   0.000000
   30  C  2 YZ    0.000000   0.005608  -0.000836   0.000000   0.000000
   31  C  3  S    0.022861   0.000000   0.000000  -0.081212  -0.113659
   32  C  3  S   -0.048842   0.000000   0.000000   0.098668   0.121735
   33  C  3  X   -0.044398   0.000000   0.000000  -0.166212   0.087878
   34  C  3  Y   -0.298475   0.000000   0.000000  -0.050870  -0.189554
   35  C  3  Z    0.000000  -0.126926  -0.033266   0.000000   0.000000
   36  C  3  S   -0.115185   0.000000   0.000000   1.335500   1.976882
   37  C  3  X   -0.017146   0.000000   0.000000  -0.510136   0.283449
   38  C  3  Y   -0.160662   0.000000   0.000000  -0.165490  -0.451315
   39  C  3  Z    0.000000  -0.075740  -0.188603   0.000000   0.000000
   40  C  3 XX   -0.003675   0.000000   0.000000  -0.023875   0.002724
   41  C  3 YY   -0.000586   0.000000   0.000000   0.004623  -0.012434
   42  C  3 ZZ    0.010894   0.000000   0.000000  -0.000580  -0.018300
   43  C  3 XY   -0.010663   0.000000   0.000000   0.001195   0.003998
   44  C  3 XZ    0.000000   0.002916  -0.002078   0.000000   0.000000
   45  C  3 YZ    0.000000   0.020846  -0.028559   0.000000   0.000000
   46  H  4  S    0.169372   0.000000   0.000000   0.025575   0.003939
   47  H  4  S    0.192263   0.000000   0.000000  -0.332525  -0.477237
   48  H  5  S   -0.164881   0.000000   0.000000  -0.068757   0.012835
   49  H  5  S   -0.166674   0.000000   0.000000  -0.831199   0.366636
   50  H  6  S    0.206049   0.000000   0.000000  -0.037216   0.090683
   51  H  6  S    0.215720   0.000000   0.000000  -0.989822   0.841345
   52  H  7  S    0.082917   0.097579  -0.084280   0.016944  -0.047757
   53  H  7  S    0.092249   0.103979  -0.358706  -0.376717  -1.214652
   54  H  8  S    0.082917  -0.097579   0.084280   0.016944  -0.047757
   55  H  8  S    0.092249  -0.103979   0.358706  -0.376717  -1.214652
   56  H  9  S   -0.017372   0.000000   0.000000  -0.080399   0.035203
   57  H  9  S    0.000893   0.000000   0.000000  -1.209552  -0.179209

                     16         17         18         19         20
                    0.1575     0.1916     0.1966     0.2064     0.2929
                     A'         A'         A''        A'         A'  
    1  C  1  S   -0.116135   0.030899   0.000000   0.042214  -0.031919
    2  C  1  S    0.161608  -0.035747   0.000000  -0.060592  -0.002181
    3  C  1  X    0.204794  -0.050544   0.000000   0.052254   0.042254
    4  C  1  Y   -0.093656  -0.340629   0.000000  -0.089114  -0.177114
    5  C  1  Z    0.000000   0.000000   0.136363   0.000000   0.000000
    6  C  1  S    1.912341  -0.738410   0.000000  -0.405240   0.991941
    7  C  1  X    0.495362   0.068538   0.000000   0.278905  -0.573681
    8  C  1  Y   -0.226415  -1.086469   0.000000  -0.469069  -1.508711
    9  C  1  Z    0.000000   0.000000   0.219952   0.000000   0.000000
   10  C  1 XX   -0.005410  -0.002293   0.000000   0.012057  -0.005128
   11  C  1 YY   -0.009356  -0.002512   0.000000  -0.002980   0.011340
   12  C  1 ZZ   -0.007195   0.005042   0.000000   0.001964  -0.007490
   13  C  1 XY    0.012047   0.007530   0.000000   0.008186  -0.022243
   14  C  1 XZ    0.000000   0.000000   0.013652   0.000000   0.000000
   15  C  1 YZ    0.000000   0.000000   0.002129   0.000000   0.000000
   16  C  2  S    0.015597  -0.032196   0.000000  -0.115221   0.070629
   17  C  2  S   -0.045935   0.029435   0.000000   0.178507  -0.063983
   18  C  2  X   -0.032733  -0.019732   0.000000  -0.143645  -0.039768
   19  C  2  Y   -0.115811  -0.111257   0.000000   0.042380   0.382778
   20  C  2  Z    0.000000   0.000000  -0.136678   0.000000   0.000000
   21  C  2  S   -0.064321   0.599959   0.000000   2.065510  -2.010811
   22  C  2  X   -0.246453   0.163375   0.000000  -0.628810  -0.380397
   23  C  2  Y   -0.475408  -0.070640   0.000000   0.254267   2.233759
   24  C  2  Z    0.000000   0.000000  -0.465480   0.000000   0.000000
   25  C  2 XX    0.006246   0.009072   0.000000  -0.007040  -0.008051
   26  C  2 YY   -0.009795  -0.018393   0.000000   0.004879   0.003072
   27  C  2 ZZ    0.003151   0.001530   0.000000  -0.007603   0.005248
   28  C  2 XY   -0.012307  -0.016635   0.000000  -0.020513  -0.012906
   29  C  2 XZ    0.000000   0.000000  -0.005088   0.000000   0.000000
   30  C  2 YZ    0.000000   0.000000  -0.011412   0.000000   0.000000
   31  C  3  S    0.058069   0.023581   0.000000   0.056385  -0.054628
   32  C  3  S   -0.055648  -0.054100   0.000000  -0.066191  -0.025390
   33  C  3  X    0.077768  -0.282244   0.000000   0.164809   0.078972
   34  C  3  Y   -0.038261  -0.020728   0.000000  -0.226666   0.098164
   35  C  3  Z    0.000000   0.000000   0.433191   0.000000   0.000000
   36  C  3  S   -1.103910  -0.108017   0.000000  -0.825390   1.683037
   37  C  3  X   -0.000305  -0.967709   0.000000   0.540030   1.174825
   38  C  3  Y   -0.156335   0.036821   0.000000  -1.050439   1.428156
   39  C  3  Z    0.000000   0.000000   1.423334   0.000000   0.000000
   40  C  3 XX   -0.002857  -0.004791   0.000000   0.005379   0.004363
   41  C  3 YY    0.006996   0.007440   0.000000   0.017555  -0.023954
   42  C  3 ZZ    0.007625   0.001524   0.000000  -0.011329   0.008246
   43  C  3 XY    0.000705   0.013425   0.000000   0.011125  -0.025769
   44  C  3 XZ    0.000000   0.000000  -0.012460   0.000000   0.000000
   45  C  3 YZ    0.000000   0.000000   0.000799   0.000000   0.000000
   46  H  4  S   -0.101259  -0.021088   0.000000  -0.016283   0.049757
   47  H  4  S   -1.640799  -0.855284   0.000000  -0.347757  -1.233103
   48  H  5  S   -0.019004   0.045032   0.000000   0.041608  -0.021543
   49  H  5  S   -0.819090   1.593648   0.000000   0.630994   1.051233
   50  H  6  S    0.040689   0.011008   0.000000  -0.002180   0.019027
   51  H  6  S    0.475105   0.048461   0.000000  -1.461781  -1.395370
   52  H  7  S    0.028917   0.015257   0.057756  -0.045882   0.060591
   53  H  7  S    0.284853   0.432862   1.537373  -0.489164   0.036899
   54  H  8  S    0.028917   0.015257  -0.057756  -0.045882   0.060591
   55  H  8  S    0.284853   0.432862  -1.537373  -0.489164   0.036899
   56  H  9  S   -0.025315  -0.066356   0.000000   0.040301   0.084310
   57  H  9  S    0.463377  -1.159070   0.000000   1.207559   0.418049

                     21         22         23         24         25
                    0.3443     0.5049     0.5372     0.5565     0.5907
                     A'         A'         A'         A''        A'  
    1  C  1  S   -0.074647  -0.005081   0.017342   0.000000   0.009037
    2  C  1  S    0.024693  -0.190988  -0.172599   0.000000  -0.339772
    3  C  1  X   -0.120027   0.534868   0.118282   0.000000   0.327887
    4  C  1  Y    0.054457  -0.000424   0.305714   0.000000  -0.070217
    5  C  1  Z    0.000000   0.000000   0.000000  -0.634155   0.000000
    6  C  1  S    3.073560  -0.487298   0.186794   0.000000  -0.296761
    7  C  1  X   -2.847912  -0.447483   0.337835   0.000000  -0.204056
    8  C  1  Y   -0.039185  -0.141642  -0.546577   0.000000   0.425779
    9  C  1  Z    0.000000   0.000000   0.000000   0.620268   0.000000
   10  C  1 XX   -0.024301  -0.050541   0.009339   0.000000  -0.032559
   11  C  1 YY    0.035141   0.019336  -0.011997   0.000000  -0.029664
   12  C  1 ZZ   -0.011604  -0.004026  -0.007627   0.000000   0.011104
   13  C  1 XY    0.014119  -0.009973   0.093540   0.000000  -0.014129
   14  C  1 XZ    0.000000   0.000000   0.000000   0.050112   0.000000
   15  C  1 YZ    0.000000   0.000000   0.000000  -0.003450   0.000000
   16  C  2  S    0.053024  -0.017904  -0.032698   0.000000  -0.073669
   17  C  2  S    0.015092  -0.051745   0.017365   0.000000  -0.274098
   18  C  2  X   -0.295253  -0.362964   0.089608   0.000000  -0.180776
   19  C  2  Y   -0.099587  -0.209682   0.094759   0.000000  -0.223701
   20  C  2  Z    0.000000   0.000000   0.000000  -0.644004   0.000000
   21  C  2  S   -2.620857   0.129226  -0.080925   0.000000   0.372328
   22  C  2  X   -2.973827   1.156808   0.085675   0.000000   0.794556
   23  C  2  Y   -0.543599   0.558727   0.050469   0.000000   0.159097
   24  C  2  Z    0.000000   0.000000   0.000000   0.349509   0.000000
   25  C  2 XX    0.015316  -0.071347  -0.031254   0.000000  -0.097636
   26  C  2 YY   -0.012751   0.062095  -0.036569   0.000000  -0.118861
   27  C  2 ZZ    0.007469   0.006588   0.023967   0.000000   0.073594
   28  C  2 XY   -0.007162   0.006756  -0.085763   0.000000  -0.020736
   29  C  2 XZ    0.000000   0.000000   0.000000  -0.052802   0.000000
   30  C  2 YZ    0.000000   0.000000   0.000000  -0.003215   0.000000
   31  C  3  S    0.011289   0.008430   0.008090   0.000000   0.021741
   32  C  3  S   -0.033674  -0.016684  -0.165757   0.000000  -0.215903
   33  C  3  X   -0.152917  -0.098431  -0.557050   0.000000   0.043193
   34  C  3  Y   -0.095626   0.357459  -0.355396   0.000000  -0.776333
   35  C  3  Z    0.000000   0.000000   0.000000  -0.317242   0.000000
   36  C  3  S   -0.392162   0.509730   0.217771   0.000000   0.256009
   37  C  3  X    0.304219   0.039470   0.854466   0.000000  -0.457151
   38  C  3  Y   -0.965495  -0.328281   0.485816   0.000000   1.135644
   39  C  3  Z    0.000000   0.000000   0.000000   0.782054   0.000000
   40  C  3 XX   -0.004352   0.059037   0.074353   0.000000  -0.043849
   41  C  3 YY    0.027182   0.010347  -0.051785   0.000000   0.006227
   42  C  3 ZZ   -0.021694  -0.050791  -0.038290   0.000000   0.033221
   43  C  3 XY   -0.010408   0.055902  -0.006164   0.000000   0.033991
   44  C  3 XZ    0.000000   0.000000   0.000000  -0.039411   0.000000
   45  C  3 YZ    0.000000   0.000000   0.000000   0.040831   0.000000
   46  H  4  S    0.044106   0.074619  -0.351092   0.000000   0.070100
   47  H  4  S    0.611256  -0.110848  -0.190452   0.000000   0.279630
   48  H  5  S    0.141520  -0.007809   0.235998   0.000000  -0.110873
   49  H  5  S    0.250341   0.057294  -0.173252   0.000000  -0.188662
   50  H  6  S   -0.017364   0.050294   0.207457   0.000000  -0.388810
   51  H  6  S   -0.443189   0.036975  -0.110370   0.000000   0.193203
   52  H  7  S   -0.049681  -0.193079  -0.080576   0.247017   0.107756
   53  H  7  S   -0.353809   0.070123   0.039731   0.227696   0.172198
   54  H  8  S   -0.049681  -0.193079  -0.080576  -0.247017   0.107756
   55  H  8  S   -0.353809   0.070123   0.039731  -0.227696   0.172198
   56  H  9  S   -0.031490   0.208871   0.344059   0.000000  -0.132322
   57  H  9  S    0.009241  -0.135233  -0.038540   0.000000  -0.178375

                     26         27         28         29         30
                    0.6185     0.6803     0.6816     0.7624     0.7814
                     A''        A''        A'         A'         A'  
    1  C  1  S    0.000000   0.000000  -0.088273   0.024487   0.014325
    2  C  1  S    0.000000   0.000000  -0.470353  -0.028986  -0.402314
    3  C  1  X    0.000000   0.000000  -0.433189   0.140728   0.364289
    4  C  1  Y    0.000000   0.000000  -0.042155  -0.162511   0.185514
    5  C  1  Z    0.739058   0.437785   0.000000   0.000000   0.000000
    6  C  1  S    0.000000   0.000000   1.570614   1.317440   1.002890
    7  C  1  X    0.000000   0.000000   0.663631  -0.274888  -0.690833
    8  C  1  Y    0.000000   0.000000  -0.031177   0.096517  -0.310919
    9  C  1  Z   -0.775687  -0.914138   0.000000   0.000000   0.000000
   10  C  1 XX    0.000000   0.000000  -0.146563   0.119054   0.055610
   11  C  1 YY    0.000000   0.000000  -0.140435  -0.036561  -0.070317
   12  C  1 ZZ    0.000000   0.000000   0.095401  -0.037478  -0.012252
   13  C  1 XY    0.000000   0.000000  -0.010409  -0.021755  -0.032608
   14  C  1 XZ   -0.003714   0.011327   0.000000   0.000000   0.000000
   15  C  1 YZ   -0.017953   0.022535   0.000000   0.000000   0.000000
   16  C  2  S    0.000000   0.000000   0.041262  -0.027547  -0.031276
   17  C  2  S    0.000000   0.000000  -0.495369   0.219511  -0.664437
   18  C  2  X    0.000000   0.000000  -0.393984   0.486790   0.530478
   19  C  2  Y    0.000000   0.000000  -0.041206  -0.403673   0.602223
   20  C  2  Z   -0.131855  -0.859190   0.000000   0.000000   0.000000
   21  C  2  S    0.000000   0.000000   0.575151  -0.534520   1.395952
   22  C  2  X    0.000000   0.000000  -0.147047  -1.952713  -1.366919
   23  C  2  Y    0.000000   0.000000   0.185842   1.474838  -1.289562
   24  C  2  Z   -0.067540   1.619414   0.000000   0.000000   0.000000
   25  C  2 XX    0.000000   0.000000   0.059377  -0.019928  -0.157070
   26  C  2 YY    0.000000   0.000000  -0.061910  -0.056918  -0.019135
   27  C  2 ZZ    0.000000   0.000000  -0.024704   0.046478   0.032315
   28  C  2 XY    0.000000   0.000000   0.031236   0.055312   0.060970
   29  C  2 XZ    0.026032   0.016145   0.000000   0.000000   0.000000
   30  C  2 YZ   -0.005430   0.043928   0.000000   0.000000   0.000000
   31  C  3  S    0.000000   0.000000  -0.008904   0.013318  -0.054846
   32  C  3  S    0.000000   0.000000   0.048617  -0.094396   0.066242
   33  C  3  X    0.000000   0.000000  -0.082087  -0.644610   0.202523
   34  C  3  Y    0.000000   0.000000   0.105583   0.188382   0.214161
   35  C  3  Z   -0.600957   0.356763   0.000000   0.000000   0.000000
   36  C  3  S    0.000000   0.000000  -0.013450   0.304901  -0.656587
   37  C  3  X    0.000000   0.000000   0.351798   2.099029  -0.711649
   38  C  3  Y    0.000000   0.000000  -0.406043  -0.604505  -1.273774
   39  C  3  Z    1.337909  -1.294636   0.000000   0.000000   0.000000
   40  C  3 XX    0.000000   0.000000   0.002839  -0.014064   0.022856
   41  C  3 YY    0.000000   0.000000   0.032874   0.082797  -0.078285
   42  C  3 ZZ    0.000000   0.000000  -0.025524  -0.063090  -0.000380
   43  C  3 XY    0.000000   0.000000  -0.029435  -0.052508  -0.042616
   44  C  3 XZ   -0.071243   0.030152   0.000000   0.000000   0.000000
   45  C  3 YZ    0.052754  -0.057720   0.000000   0.000000   0.000000
   46  H  4  S    0.000000   0.000000  -0.534436   0.137996  -0.026383
   47  H  4  S    0.000000   0.000000  -0.295264  -0.231095  -0.148608
   48  H  5  S    0.000000   0.000000  -0.589644  -0.233518  -0.056764
   49  H  5  S    0.000000   0.000000  -0.114498  -0.028733   0.381309
   50  H  6  S    0.000000   0.000000  -0.090167  -0.444728  -0.328707
   51  H  6  S    0.000000   0.000000  -0.184159  -0.913374   0.111473
   52  H  7  S    0.278737  -0.204561  -0.082778   0.031920  -0.317431
   53  H  7  S    0.277671  -0.301524  -0.160143  -0.440260  -0.188931
   54  H  8  S   -0.278737   0.204561  -0.082778   0.031920  -0.317431
   55  H  8  S   -0.277671   0.301524  -0.160143  -0.440260  -0.188931
   56  H  9  S    0.000000   0.000000   0.002615   0.064118  -0.180739
   57  H  9  S    0.000000   0.000000   0.232200   1.092795  -0.453242

                     31         32         33         34         35
                    0.8714     0.8838     0.8911     0.9262     0.9497
                     A'         A''        A'         A'         A'  
    1  C  1  S    0.003875   0.000000   0.012968   0.008615   0.023763
    2  C  1  S   -0.110638   0.000000   0.093640  -0.303230  -0.928555
    3  C  1  X    0.173118   0.000000  -0.063556   0.045806  -0.507802
    4  C  1  Y   -1.019831   0.000000   0.280783   0.328672  -0.030203
    5  C  1  Z    0.000000  -0.089251   0.000000   0.000000   0.000000
    6  C  1  S    0.025530   0.000000  -1.020864  -0.062482   1.729721
    7  C  1  X   -0.265658   0.000000   0.605278   0.263035   0.912242
    8  C  1  Y    2.750222   0.000000  -0.239852  -1.249546   0.076291
    9  C  1  Z    0.000000   0.120257   0.000000   0.000000   0.000000
   10  C  1 XX   -0.022842   0.000000  -0.020936  -0.049448  -0.111700
   11  C  1 YY    0.005047   0.000000   0.029437   0.023337   0.075631
   12  C  1 ZZ    0.004894   0.000000  -0.004312  -0.009047  -0.096742
   13  C  1 XY    0.109184   0.000000  -0.069818   0.055583  -0.012250
   14  C  1 XZ    0.000000  -0.006985   0.000000   0.000000   0.000000
   15  C  1 YZ    0.000000   0.014986   0.000000   0.000000   0.000000
   16  C  2  S   -0.012873   0.000000  -0.026033   0.009199  -0.019398
   17  C  2  S   -0.110130   0.000000   0.575001  -0.532426  -0.475153
   18  C  2  X   -0.009904   0.000000  -0.519537   0.194454  -0.062912
   19  C  2  Y    0.394439   0.000000   0.596856  -0.360298   0.000872
   20  C  2  Z    0.000000   0.005622   0.000000   0.000000   0.000000
   21  C  2  S    0.462709   0.000000  -0.645692   1.075606   1.136359
   22  C  2  X    0.070911   0.000000   1.586525   0.217275  -0.005597
   23  C  2  Y   -1.840236   0.000000  -1.333597   1.411716  -0.023837
   24  C  2  Z    0.000000  -0.110272   0.000000   0.000000   0.000000
   25  C  2 XX   -0.004832   0.000000   0.072270  -0.049327  -0.021866
   26  C  2 YY   -0.011351   0.000000  -0.040962   0.018141  -0.067664
   27  C  2 ZZ    0.007348   0.000000   0.068713  -0.039511   0.021375
   28  C  2 XY   -0.060696   0.000000   0.125915  -0.034150   0.001443
   29  C  2 XZ    0.000000   0.027469   0.000000   0.000000   0.000000
   30  C  2 YZ    0.000000   0.098295   0.000000   0.000000   0.000000
   31  C  3  S   -0.010152   0.000000   0.009105  -0.020852   0.023111
   32  C  3  S    0.117353   0.000000   0.051668   0.008403  -0.701705
   33  C  3  X   -0.212107   0.000000  -0.418760  -0.399526   0.095546
   34  C  3  Y    0.186361   0.000000   0.149931   0.238127   0.264163
   35  C  3  Z    0.000000  -0.850587   0.000000   0.000000   0.000000
   36  C  3  S   -1.046381   0.000000  -0.331964   0.686874   1.263183
   37  C  3  X    0.114578   0.000000   0.235251   0.447755  -0.045868
   38  C  3  Y   -0.635022   0.000000  -0.155266  -0.005794  -0.613429
   39  C  3  Z    0.000000   1.345728   0.000000   0.000000   0.000000
   40  C  3 XX   -0.055858   0.000000  -0.101554  -0.153196  -0.001476
   41  C  3 YY   -0.023311   0.000000   0.043305  -0.003004  -0.072880
   42  C  3 ZZ    0.069402   0.000000   0.068235   0.151050  -0.022017
   43  C  3 XY   -0.039211   0.000000  -0.005335   0.076635  -0.055575
   44  C  3 XZ    0.000000   0.064197   0.000000   0.000000   0.000000
   45  C  3 YZ    0.000000  -0.196792   0.000000   0.000000   0.000000
   46  H  4  S   -0.434531   0.000000   0.178089   0.003301   0.504915
   47  H  4  S    1.817019   0.000000  -0.507556  -0.667647  -1.117184
   48  H  5  S    0.412601   0.000000  -0.025270   0.140347   0.505477
   49  H  5  S   -1.798361   0.000000   0.231913   0.386520  -1.145229
   50  H  6  S    0.008493   0.000000  -0.561007   0.462972  -0.135283
   51  H  6  S    0.657572   0.000000   2.031792  -1.254883  -0.028790
   52  H  7  S    0.120963  -0.701157   0.201310   0.228164   0.246637
   53  H  7  S   -0.271584   1.442857  -0.311210  -0.474142  -0.604068
   54  H  8  S    0.120963   0.701157   0.201310   0.228164   0.246637
   55  H  8  S   -0.271584  -1.442857  -0.311210  -0.474142  -0.604068
   56  H  9  S   -0.191949   0.000000  -0.364159  -0.855653   0.398587
   57  H  9  S    0.487131   0.000000   0.718949   1.065609  -0.561968

                     36         37         38         39         40
                    0.9689     1.1154     1.2512     1.2970     1.4316
                     A'         A'         A'         A'         A'' 
    1  C  1  S   -0.017205  -0.035590  -0.009969  -0.008101   0.000000
    2  C  1  S    0.397075  -1.498795  -0.366550  -0.235412   0.000000
    3  C  1  X    0.419253   0.226423   0.040610  -0.081558   0.000000
    4  C  1  Y    0.172079   0.015502   0.152519  -0.125037   0.000000
    5  C  1  Z    0.000000   0.000000   0.000000   0.000000   0.122507
    6  C  1  S   -0.740501   5.492876   1.375508   1.143943   0.000000
    7  C  1  X   -0.910477  -2.061152  -0.207565   0.102135   0.000000
    8  C  1  Y   -0.316068   0.554916  -3.156093  -0.094245   0.000000
    9  C  1  Z    0.000000   0.000000   0.000000   0.000000  -0.059798
   10  C  1 XX    0.061376   0.008467  -0.004575   0.058321   0.000000
   11  C  1 YY   -0.073210  -0.191501  -0.024166   0.037014   0.000000
   12  C  1 ZZ    0.082766  -0.008145  -0.017919  -0.116895   0.000000
   13  C  1 XY    0.038099  -0.041605   0.182675   0.009297   0.000000
   14  C  1 XZ    0.000000   0.000000   0.000000   0.000000   0.361669
   15  C  1 YZ    0.000000   0.000000   0.000000   0.000000  -0.155680
   16  C  2  S   -0.014079   0.028879   0.020631   0.055401   0.000000
   17  C  2  S    0.063175   1.212998   0.647778   0.830246   0.000000
   18  C  2  X    0.112439   0.298918   0.038032  -0.030048   0.000000
   19  C  2  Y    0.044097   0.095305  -0.314280   0.008471   0.000000
   20  C  2  Z    0.000000   0.000000   0.000000   0.000000   0.004961
   21  C  2  S   -0.388134  -4.622763  -2.263461  -4.033843   0.000000
   22  C  2  X   -0.345408  -2.167757  -0.366860   0.704553   0.000000
   23  C  2  Y   -0.239790  -1.296899   3.602773   1.717502   0.000000
   24  C  2  Z    0.000000   0.000000   0.000000   0.000000   0.072574
   25  C  2 XX   -0.025378  -0.045524   0.019557   0.081954   0.000000
   26  C  2 YY   -0.021288   0.176847   0.023890   0.080869   0.000000
   27  C  2 ZZ    0.030226   0.010264   0.000717  -0.108187   0.000000
   28  C  2 XY   -0.029777  -0.033182   0.101597  -0.061696   0.000000
   29  C  2 XZ    0.000000   0.000000   0.000000   0.000000  -0.336371
   30  C  2 YZ    0.000000   0.000000   0.000000   0.000000  -0.446540
   31  C  3  S    0.036365   0.038881  -0.008172  -0.137903   0.000000
   32  C  3  S   -1.054354   0.444445   0.161439  -1.935174   0.000000
   33  C  3  X    0.202503   0.071405   0.382792  -0.012262   0.000000
   34  C  3  Y    0.354406  -0.011308   0.104093  -0.125655   0.000000
   35  C  3  Z    0.000000   0.000000   0.000000   0.000000  -0.117269
   36  C  3  S    2.149933  -1.511522   2.032874   6.565023   0.000000
   37  C  3  X   -0.569324  -0.253625   0.030137   0.496298   0.000000
   38  C  3  Y   -0.591730  -0.040569   0.993921   1.294491   0.000000
   39  C  3  Z    0.000000   0.000000   0.000000   0.000000  -0.158107
   40  C  3 XX   -0.062730   0.051803  -0.044943  -0.088827   0.000000
   41  C  3 YY   -0.107047   0.025700   0.187689  -0.017235   0.000000
   42  C  3 ZZ    0.039051   0.017059  -0.102862  -0.145940   0.000000
   43  C  3 XY   -0.038753   0.049626  -0.026920   0.039671   0.000000
   44  C  3 XZ    0.000000   0.000000   0.000000   0.000000   0.495197
   45  C  3 YZ    0.000000   0.000000   0.000000   0.000000   0.287820
   46  H  4  S   -0.395237   0.092546  -0.700131  -0.065322   0.000000
   47  H  4  S    0.789046  -0.137132  -1.055709  -0.340537   0.000000
   48  H  5  S   -0.354330  -0.288942   0.663394  -0.034965   0.000000
   49  H  5  S    0.920052  -0.477685   0.792597  -0.378746   0.000000
   50  H  6  S    0.024697   0.324423  -0.596289   0.069935   0.000000
   51  H  6  S    0.041644   0.465303  -0.895821   0.055314   0.000000
   52  H  7  S    0.530564   0.178833  -0.016177  -0.497456  -0.160405
   53  H  7  S   -0.978774   0.260609   0.199435  -0.580286   0.027094
   54  H  8  S    0.530564   0.178833  -0.016177  -0.497456   0.160405
   55  H  8  S   -0.978774   0.260609   0.199435  -0.580286  -0.027094
   56  H  9  S    0.284482   0.066641  -0.018020  -0.518984   0.000000
   57  H  9  S   -0.914400  -0.052467  -0.337193  -0.741962   0.000000

                     41         42         43         44         45
                    1.4847     1.7114     1.8119     1.9025     1.9596
                     A''        A''        A'         A'         A'  
    1  C  1  S    0.000000   0.000000   0.016212   0.000831  -0.024014
    2  C  1  S    0.000000   0.000000  -0.109909   0.026822  -0.178085
    3  C  1  X    0.000000   0.000000   0.243771   0.120949   0.196874
    4  C  1  Y    0.000000   0.000000   0.085076  -0.176126   0.144833
    5  C  1  Z   -0.121647  -0.018443   0.000000   0.000000   0.000000
    6  C  1  S    0.000000   0.000000  -1.379796  -0.747766  -0.134146
    7  C  1  X    0.000000   0.000000   0.276661   0.249067   0.193339
    8  C  1  Y    0.000000   0.000000   0.539875   0.394783   0.500585
    9  C  1  Z    0.034731   0.056022   0.000000   0.000000   0.000000
   10  C  1 XX    0.000000   0.000000   0.035546   0.034188   0.047517
   11  C  1 YY    0.000000   0.000000  -0.163602   0.088126   0.459269
   12  C  1 ZZ    0.000000   0.000000   0.071369  -0.136767  -0.596469
   13  C  1 XY    0.000000   0.000000   0.132458  -0.404519   0.274486
   14  C  1 XZ   -0.450968  -0.208448   0.000000   0.000000   0.000000
   15  C  1 YZ   -0.331038   0.891823   0.000000   0.000000   0.000000
   16  C  2  S    0.000000   0.000000  -0.008022  -0.013401  -0.045133
   17  C  2  S    0.000000   0.000000  -0.041168  -0.575149  -0.477383
   18  C  2  X    0.000000   0.000000  -0.059295   0.127367  -0.071476
   19  C  2  Y    0.000000   0.000000  -0.004448   0.161324   0.193506
   20  C  2  Z   -0.147432  -0.038134   0.000000   0.000000   0.000000
   21  C  2  S    0.000000   0.000000   0.502761   1.428557   1.800610
   22  C  2  X    0.000000   0.000000   1.656737   0.425862   0.182875
   23  C  2  Y    0.000000   0.000000  -0.831551  -1.298979  -0.910062
   24  C  2  Z   -0.020127  -0.151846   0.000000   0.000000   0.000000
   25  C  2 XX    0.000000   0.000000   0.262786  -0.046844   0.238536
   26  C  2 YY    0.000000   0.000000  -0.430024   0.225569   0.304243
   27  C  2 ZZ    0.000000   0.000000   0.178262  -0.213969  -0.590493
   28  C  2 XY    0.000000   0.000000   0.032646   0.545827  -0.324156
   29  C  2 XZ    0.519360   0.108892   0.000000   0.000000   0.000000
   30  C  2 YZ   -0.416625  -0.081421   0.000000   0.000000   0.000000
   31  C  3  S    0.000000   0.000000  -0.014810   0.040980   0.029894
   32  C  3  S    0.000000   0.000000   0.022507  -0.173795   0.402727
   33  C  3  X    0.000000   0.000000   0.109426  -0.099897  -0.019093
   34  C  3  Y    0.000000   0.000000   0.017652  -0.260053  -0.001525
   35  C  3  Z   -0.042727  -0.066602   0.000000   0.000000   0.000000
   36  C  3  S    0.000000   0.000000   0.015342  -1.006207  -1.700273
   37  C  3  X    0.000000   0.000000  -0.602554  -0.309961  -0.592576
   38  C  3  Y    0.000000   0.000000   0.200639  -0.052797  -0.305705
   39  C  3  Z    0.170823   0.235516   0.000000   0.000000   0.000000
   40  C  3 XX    0.000000   0.000000  -0.239145  -0.241403   0.132957
   41  C  3 YY    0.000000   0.000000   0.468932   0.539266   0.154752
   42  C  3 ZZ    0.000000   0.000000  -0.206584  -0.310616  -0.328746
   43  C  3 XY    0.000000   0.000000  -0.715957   0.095094  -0.141105
   44  C  3 XZ    0.263262   0.329124   0.000000   0.000000   0.000000
   45  C  3 YZ    0.042653   0.203314   0.000000   0.000000   0.000000
   46  H  4  S    0.000000   0.000000   0.302670  -0.328986  -0.003514
   47  H  4  S    0.000000   0.000000   0.183580   0.301069   0.124044
   48  H  5  S    0.000000   0.000000  -0.040446   0.181642  -0.551881
   49  H  5  S    0.000000   0.000000  -0.104272  -0.150799  -0.092420
   50  H  6  S    0.000000   0.000000   0.485622   0.416661  -0.405902
   51  H  6  S    0.000000   0.000000   0.628465   0.278790   0.225115
   52  H  7  S    0.012026   0.010630  -0.091113   0.202112   0.236350
   53  H  7  S    0.135901   0.090884   0.108290  -0.011588   0.142823
   54  H  8  S   -0.012026  -0.010630  -0.091113   0.202112   0.236350
   55  H  8  S   -0.135901  -0.090884   0.108290  -0.011588   0.142823
   56  H  9  S    0.000000   0.000000  -0.076274   0.240388  -0.067568
   57  H  9  S    0.000000   0.000000  -0.167204  -0.093111  -0.022888

                     46         47         48         49         50
                    2.1348     2.1383     2.2005     2.2195     2.2769
                     A''        A'         A'         A''        A'  
    1  C  1  S    0.000000  -0.036975  -0.026843   0.000000  -0.018403
    2  C  1  S    0.000000  -0.391847  -0.192184   0.000000  -0.095342
    3  C  1  X    0.000000   0.185244   0.005976   0.000000   0.082746
    4  C  1  Y    0.000000  -0.009550  -0.012785   0.000000  -0.054001
    5  C  1  Z   -0.005667   0.000000   0.000000   0.027687   0.000000
    6  C  1  S    0.000000   1.024476   1.411910   0.000000   0.097832
    7  C  1  X    0.000000  -0.645988  -0.102043   0.000000  -0.086027
    8  C  1  Y    0.000000  -0.162271  -0.107270   0.000000  -0.403567
    9  C  1  Z    0.108590   0.000000   0.000000   0.214281   0.000000
   10  C  1 XX    0.000000   0.639919  -0.223108   0.000000   0.153267
   11  C  1 YY    0.000000  -0.369404   0.806783   0.000000   0.052896
   12  C  1 ZZ    0.000000  -0.460595  -0.523716   0.000000  -0.264146
   13  C  1 XY    0.000000  -0.049008  -0.167762   0.000000  -0.626293
   14  C  1 XZ   -0.041225   0.000000   0.000000  -0.580926   0.000000
   15  C  1 YZ   -0.214719   0.000000   0.000000  -0.176469   0.000000
   16  C  2  S    0.000000  -0.021662   0.017447   0.000000  -0.022414
   17  C  2  S    0.000000  -0.274988   0.495334   0.000000   0.099857
   18  C  2  X    0.000000  -0.303755   0.139807   0.000000  -0.168876
   19  C  2  Y    0.000000  -0.099448  -0.162215   0.000000  -0.311843
   20  C  2  Z    0.023491   0.000000   0.000000  -0.112198   0.000000
   21  C  2  S    0.000000  -0.011079  -1.015852   0.000000   0.332750
   22  C  2  X    0.000000  -0.300795  -0.729006   0.000000   0.136435
   23  C  2  Y    0.000000  -0.011096  -0.013561   0.000000  -0.165494
   24  C  2  Z   -0.410408   0.000000   0.000000  -0.199756   0.000000
   25  C  2 XX    0.000000   0.445242  -0.187317   0.000000   0.057636
   26  C  2 YY    0.000000  -0.398283  -0.075684   0.000000  -0.082544
   27  C  2 ZZ    0.000000  -0.270248   0.344076   0.000000   0.008223
   28  C  2 XY    0.000000   0.140219   0.104781   0.000000   0.089839
   29  C  2 XZ    0.039189   0.000000   0.000000  -0.414365   0.000000
   30  C  2 YZ    0.743345   0.000000   0.000000   0.291259   0.000000
   31  C  3  S    0.000000   0.009413  -0.001156   0.000000   0.020276
   32  C  3  S    0.000000   0.208828   0.154086   0.000000   0.152446
   33  C  3  X    0.000000   0.103067   0.098663   0.000000  -0.053453
   34  C  3  Y    0.000000   0.003417  -0.014137   0.000000  -0.005141
   35  C  3  Z    0.063271   0.000000   0.000000  -0.106968   0.000000
   36  C  3  S    0.000000  -0.490472  -0.167047   0.000000  -0.501320
   37  C  3  X    0.000000   0.116582   0.155037   0.000000  -0.682672
   38  C  3  Y    0.000000  -0.336631  -0.303014   0.000000  -0.162691
   39  C  3  Z    0.740656   0.000000   0.000000  -0.174837   0.000000
   40  C  3 XX    0.000000  -0.256492  -0.464275   0.000000   0.804895
   41  C  3 YY    0.000000  -0.227853  -0.119226   0.000000  -0.517239
   42  C  3 ZZ    0.000000   0.476613   0.552602   0.000000  -0.250188
   43  C  3 XY    0.000000   0.233226  -0.204380   0.000000  -0.399073
   44  C  3 XZ    0.792798   0.000000   0.000000  -0.182878   0.000000
   45  C  3 YZ   -0.085611   0.000000   0.000000   0.837223   0.000000
   46  H  4  S    0.000000  -0.065938  -0.507062   0.000000  -0.525317
   47  H  4  S    0.000000  -0.075577  -0.092659   0.000000   0.078482
   48  H  5  S    0.000000   0.123425  -0.407815   0.000000   0.285671
   49  H  5  S    0.000000  -0.030479   0.000622   0.000000   0.079025
   50  H  6  S    0.000000   0.098574   0.174389   0.000000   0.128035
   51  H  6  S    0.000000  -0.179794  -0.047354   0.000000   0.013692
   52  H  7  S    0.391193  -0.121218  -0.264861  -0.473868   0.203804
   53  H  7  S    0.147866  -0.001062   0.054148   0.101806   0.004005
   54  H  8  S   -0.391193  -0.121218  -0.264861   0.473868   0.203804
   55  H  8  S   -0.147866  -0.001062   0.054148  -0.101806   0.004005
   56  H  9  S    0.000000   0.315860   0.324319   0.000000  -0.613107
   57  H  9  S    0.000000   0.031798  -0.061808   0.000000  -0.015818

                     51         52         53         54         55
                    2.4763     2.5345     2.7519     2.8442     4.1170
                     A''        A'         A'         A'         A'  
    1  C  1  S    0.000000   0.049376  -0.055562   0.011400  -0.319807
    2  C  1  S    0.000000   0.075448   0.263269  -0.103082   2.178412
    3  C  1  X    0.000000   0.159433  -0.706550   0.184474  -0.088394
    4  C  1  Y    0.000000   0.022703  -0.064427  -0.068530  -0.016033
    5  C  1  Z   -0.114617   0.000000   0.000000   0.000000   0.000000
    6  C  1  S    0.000000  -1.588923   1.792910  -0.235220   0.823236
    7  C  1  X    0.000000   0.580900  -1.134313   0.064370   0.150300
    8  C  1  Y    0.000000   0.164154   0.081279   0.465655   0.140014
    9  C  1  Z   -0.186046   0.000000   0.000000   0.000000   0.000000
   10  C  1 XX    0.000000  -0.237017   0.999741  -0.307107  -1.217982
   11  C  1 YY    0.000000  -0.143154  -0.503062   0.210014  -1.284955
   12  C  1 ZZ    0.000000   0.489551  -0.449092   0.099824  -1.235270
   13  C  1 XY    0.000000  -0.340146   0.282680   0.742910  -0.001954
   14  C  1 XZ    0.695576   0.000000   0.000000   0.000000   0.000000
   15  C  1 YZ   -0.004925   0.000000   0.000000   0.000000   0.000000
   16  C  2  S    0.000000  -0.095058   0.035020  -0.059448  -0.311065
   17  C  2  S    0.000000  -0.108727  -0.270883   0.125586   2.011895
   18  C  2  X    0.000000   0.047675  -0.732784   0.070170   0.101898
   19  C  2  Y    0.000000  -0.196893  -0.135542  -0.088774   0.020733
   20  C  2  Z    0.050304   0.000000   0.000000   0.000000   0.000000
   21  C  2  S    0.000000   2.747741  -1.276518   1.189186   0.884006
   22  C  2  X    0.000000   0.315622  -1.255768  -0.174755  -0.024641
   23  C  2  Y    0.000000  -0.815052  -0.584838  -0.735516  -0.134798
   24  C  2  Z    0.207085   0.000000   0.000000   0.000000   0.000000
   25  C  2 XX    0.000000   0.152629  -1.136496   0.097159  -1.132824
   26  C  2 YY    0.000000   0.595318   0.773726   0.048510  -1.177217
   27  C  2 ZZ    0.000000  -0.828990   0.325607  -0.324096  -1.204954
   28  C  2 XY    0.000000  -0.054258   0.065808   1.038411   0.024415
   29  C  2 XZ    0.799794   0.000000   0.000000   0.000000   0.000000
   30  C  2 YZ    0.261076   0.000000   0.000000   0.000000   0.000000
   31  C  3  S    0.000000   0.056761   0.025298   0.050449  -0.155255
   32  C  3  S    0.000000   0.062282  -0.010278  -0.158934   0.921712
   33  C  3  X    0.000000  -0.139016  -0.073010  -0.135501   0.023976
   34  C  3  Y    0.000000  -0.239286  -0.130760  -0.292379   0.075741
   35  C  3  Z   -0.038091   0.000000   0.000000   0.000000   0.000000
   36  C  3  S    0.000000  -1.563951  -0.636918  -1.009826   0.454552
   37  C  3  X    0.000000  -0.291329  -0.216746  -0.183080  -0.071571
   38  C  3  Y    0.000000  -0.808462  -0.365517  -0.510564  -0.160968
   39  C  3  Z   -0.159948   0.000000   0.000000   0.000000   0.000000
   40  C  3 XX    0.000000  -0.298444  -0.051251   0.434925  -0.592807
   41  C  3 YY    0.000000  -0.210667  -0.070906  -0.519513  -0.465480
   42  C  3 ZZ    0.000000   0.625401   0.146041   0.234767  -0.618533
   43  C  3 XY    0.000000  -0.577389  -0.354077  -0.238460   0.059333
   44  C  3 XZ   -0.121919   0.000000   0.000000   0.000000   0.000000
   45  C  3 YZ    0.654421   0.000000   0.000000   0.000000   0.000000
   46  H  4  S    0.000000   0.045844   0.105451   0.340859   0.149089
   47  H  4  S    0.000000   0.119401   0.117204   0.081915  -0.246478
   48  H  5  S    0.000000   0.316147  -0.043936  -0.357664   0.125277
   49  H  5  S    0.000000  -0.032122   0.052372  -0.013403  -0.352012
   50  H  6  S    0.000000  -0.394845  -0.010297   0.363140   0.137468
   51  H  6  S    0.000000   0.237126   0.034886  -0.096682  -0.214118
   52  H  7  S   -0.328768  -0.182573  -0.021414   0.001464   0.068810
   53  H  7  S    0.080641   0.059308   0.007745  -0.009891  -0.207195
   54  H  8  S    0.328768  -0.182573  -0.021414   0.001464   0.068810
   55  H  8  S   -0.080641   0.059308   0.007745  -0.009891  -0.207195
   56  H  9  S    0.000000   0.230454  -0.000667  -0.149039   0.054899
   57  H  9  S    0.000000   0.019620  -0.112600   0.125030  -0.150016

                     56         57
                    4.1999     4.4002
                     A'         A'  
    1  C  1  S    0.302362   0.176070
    2  C  1  S   -1.787120  -1.052110
    3  C  1  X   -0.202075  -0.267643
    4  C  1  Y   -0.041034  -0.005333
    5  C  1  Z    0.000000   0.000000
    6  C  1  S   -1.658360  -1.217569
    7  C  1  X    0.207543   0.117237
    8  C  1  Y    0.159440   0.029860
    9  C  1  Z    0.000000   0.000000
   10  C  1 XX    1.367567   1.023152
   11  C  1 YY    1.120088   0.686955
   12  C  1 ZZ    1.148865   0.619335
   13  C  1 XY    0.036491  -0.007483
   14  C  1 XZ    0.000000   0.000000
   15  C  1 YZ    0.000000   0.000000
   16  C  2  S   -0.156066  -0.329303
   17  C  2  S    0.823326   2.007722
   18  C  2  X   -0.271888  -0.176897
   19  C  2  Y   -0.067825   0.108609
   20  C  2  Z    0.000000   0.000000
   21  C  2  S    0.803891   2.080561
   22  C  2  X    0.360466   0.003394
   23  C  2  Y    0.039249  -0.203094
   24  C  2  Z    0.000000   0.000000
   25  C  2 XX   -0.824059  -1.592385
   26  C  2 YY   -0.438708  -1.450678
   27  C  2 ZZ   -0.567577  -1.219336
   28  C  2 XY    0.076780  -0.189197
   29  C  2 XZ    0.000000   0.000000
   30  C  2 YZ    0.000000   0.000000
   31  C  3  S   -0.360472   0.304490
   32  C  3  S    2.048255  -1.779988
   33  C  3  X   -0.021817   0.058568
   34  C  3  Y   -0.008559   0.146471
   35  C  3  Z    0.000000   0.000000
   36  C  3  S    1.737623  -2.068327
   37  C  3  X   -0.006610  -0.062901
   38  C  3  Y   -0.029729  -0.184635
   39  C  3  Z    0.000000   0.000000
   40  C  3 XX   -1.350761   1.197644
   41  C  3 YY   -1.325622   1.403882
   42  C  3 ZZ   -1.395191   1.113706
   43  C  3 XY    0.008318   0.132352
   44  C  3 XZ    0.000000   0.000000
   45  C  3 YZ    0.000000   0.000000
   46  H  4  S   -0.063156  -0.074136
   47  H  4  S    0.337267   0.234512
   48  H  5  S   -0.102188  -0.052205
   49  H  5  S    0.215765   0.214262
   50  H  6  S    0.079652   0.076974
   51  H  6  S   -0.095292  -0.327137
   52  H  7  S    0.095302  -0.028653
   53  H  7  S   -0.395305   0.288587
   54  H  8  S    0.095302  -0.028653
   55  H  8  S   -0.395305   0.288587
   56  H  9  S    0.080370  -0.041546
   57  H  9  S   -0.341573   0.353240
 ...... END OF RHF CALCULATION ......
 STEP CPU TIME =     6.41 TOTAL CPU TIME =          6.4 (      0.1 MIN)
 TOTAL WALL CLOCK TIME=          6.7 SECONDS, CPU UTILIZATION IS    96.26%

     ---------------------------------------------------------------------
     PROPERTIES FOR THE B3LYP    DFT FUNCTIONAL (RHF  TYPE) DENSITY MATRIX
     ---------------------------------------------------------------------

          -----------------
          ENERGY COMPONENTS
          -----------------

         WAVEFUNCTION NORMALIZATION =       1.0000000000

                ONE ELECTRON ENERGY =    -297.2550739076
                TWO ELECTRON ENERGY =     108.5485195444
           NUCLEAR REPULSION ENERGY =      70.8910066616
                                      ------------------
                       TOTAL ENERGY =    -117.8155477016

 ELECTRON-ELECTRON POTENTIAL ENERGY =     108.5485195444
  NUCLEUS-ELECTRON POTENTIAL ENERGY =    -413.9853226895
   NUCLEUS-NUCLEUS POTENTIAL ENERGY =      70.8910066616
                                      ------------------
             TOTAL POTENTIAL ENERGY =    -234.5457964835
               TOTAL KINETIC ENERGY =     116.7302487820
                 VIRIAL RATIO (V/T) =       2.0092974951

          ---------------------------------------
          MULLIKEN AND LOWDIN POPULATION ANALYSES
          ---------------------------------------

     ATOMIC MULLIKEN POPULATION IN EACH MOLECULAR ORBITAL

                      1          2          3          4          5

                  2.000000   2.000000   2.000000   2.000000   2.000000

    1             0.002662   0.000034   1.996514   0.480948   0.579531
    2             1.995631   0.001522   0.002648   0.753589   0.268827
    3             0.001337   1.996847   0.000006   0.550577   0.705647
    4            -0.000015   0.000001   0.000426   0.031189   0.061604
    5             0.000009  -0.000000   0.000406   0.024807   0.087963
    6             0.000350  -0.000002  -0.000001   0.047559   0.003433
    7             0.000015   0.000536   0.000000   0.037050   0.092589
    8             0.000015   0.000536   0.000000   0.037050   0.092589
    9            -0.000004   0.000526   0.000000   0.037230   0.107817

                      6          7          8          9         10

                  2.000000   2.000000   2.000000   2.000000   2.000000

    1             0.468526   0.588698   0.572611   0.034779   0.316992
    2             0.595317   0.383324   0.383587   0.157452   0.279030
    3             0.241475   0.366557   0.459874   1.029732   0.644977
    4             0.197127   0.022004   0.323145   0.000000   0.003344
    5             0.083665   0.329251   0.011921   0.000000   0.128040
    6             0.283657   0.135108   0.012964   0.000000   0.065699
    7             0.058650   0.000182   0.094401   0.389018   0.044659
    8             0.058650   0.000182   0.094401   0.389018   0.044659
    9             0.012933   0.174694   0.047095   0.000000   0.472599

                     11         12

                  2.000000   2.000000

    1             0.276251   1.006136
    2             0.427465   0.819698
    3             0.423694   0.062049
[...]
               TOTAL  0.07341807  0.11404833  0.11971265  0.06017251 12.81181641

                            6           7           8           9          10
       FREQUENCY:         9.73       15.01      415.34      591.01      924.11  
        SYMMETRY:         A'          A''         A'          A''         A'  
    REDUCED MASS:      2.59507     1.55645     1.98944     1.31064     2.04038
    IR INTENSITY:      0.00187     0.00038     0.01016     0.27279     0.01108

  1   C            X -0.07236456  0.00001675 -0.06345115 -0.00000190  0.06455001
                   Y  0.14601945  0.00001632 -0.09881162 -0.00000404  0.09310682
                   Z -0.00285066  0.01254845 -0.00000287  0.04011141  0.00001508
  2   C            X -0.05440309  0.00001495 -0.07835173 -0.00000355  0.02021307
                   Y -0.02172187  0.00003319  0.11317143  0.00000154  0.09719365
                   Z  0.00085883  0.12654237  0.00000497 -0.13838685 -0.00000214
  3   C            X  0.11257657 -0.00000171  0.10777742 -0.00000060 -0.06844062
                   Y -0.11387005  0.00004236  0.02313410 -0.00000151 -0.13661355
                   Z  0.00213438 -0.12608107 -0.00000031  0.01608782 -0.00000458
  4   H            X  0.03628495  0.00000581 -0.29165874 -0.00001158 -0.25910761
                   Y  0.23104618  0.00000775 -0.27899321 -0.00001181 -0.16745899
                   Z -0.00529203 -0.28059843 -0.00000116 -0.33583228 -0.00004563
  5   H            X -0.19668456  0.00002925  0.19344069  0.00000797  0.48478045
                   Y  0.20552381  0.00001034 -0.22375446 -0.00000909 -0.10498997
                   Z -0.00359904  0.20829592 -0.00000961  0.59233407 -0.00007939
  6   H            X -0.16774338  0.00002630 -0.06611322 -0.00000353 -0.09503555
                   Y -0.09982129  0.00004104  0.11812129  0.00000157  0.02411678
                   Z  0.00317068  0.42393483  0.00000060  0.31259961  0.00000837
  7   H            X  0.18537484 -0.09976029  0.24632616 -0.14283095 -0.12986513
                   Y -0.08134554  0.22328084  0.07980269 -0.20022363 -0.15699557
                   Z  0.00097773 -0.30657993  0.00189667  0.11174174 -0.00499791
  8   H            X  0.19058162  0.09974182  0.24629039  0.14283653 -0.12984742
                   Y -0.08252883 -0.22320238  0.07980091  0.20022314 -0.15696775
                   Z  0.00098655 -0.30657987 -0.00188868  0.11174152  0.00500344
  9   H            X  0.09489265  0.00000006  0.07687440 -0.00000138 -0.06531612
                   Y -0.25055175  0.00005601 -0.22150721 -0.00000752 -0.07688868
                   Z  0.00542814  0.03195100 -0.00002498  0.18615718  0.00001275

 TRANS. SAYVETZ    X -0.02647021  0.00040310  0.00002454 -0.00007563 -0.00004299
                   Y  0.04684512  0.00129763 -0.00009704 -0.00007575  0.00005733
                   Z  0.00339566 -0.07525596 -0.00000591  0.00014903  0.00000111
               TOTAL  0.05391352  0.07526823  0.00010027  0.00018349  0.00007167

   ROT. SAYVETZ    X -0.08306407  8.24549066  0.00000741 -0.00737836 -0.00000184
                   Y  0.18776919 -1.75002335 -0.00002231  0.00844783  0.00000464
                   Z 14.96342904 -0.00149784  0.02328601 -0.00008271  0.00224189
               TOTAL 14.96483764  8.42915774  0.02328602  0.01121663  0.00224190

                           11          12          13          14          15
       FREQUENCY:       931.63      981.69     1023.73     1066.76     1184.34  
        SYMMETRY:         A''         A'          A''         A''         A'  
    REDUCED MASS:      1.33254     1.32773     1.05205     1.47930     1.73443
    IR INTENSITY:      0.72645     0.01379     0.40514     0.00249     0.14044

  1   C            X  0.00000698 -0.05704004 -0.00000154 -0.00000106 -0.01427990
                   Y  0.00001061  0.02829949 -0.00000198 -0.00000157 -0.07682580
                   Z -0.14308953  0.00000050 -0.01099230 -0.02234794 -0.00000004
  2   C            X  0.00000272 -0.00277645 -0.00000132 -0.00000133 -0.02040192
                   Y  0.00001064 -0.05662109 -0.00000274 -0.00000270  0.13723465
                   Z  0.03640382 -0.00000046 -0.02779743  0.12322287  0.00000067
  3   C            X -0.00000691  0.11770119  0.00000145  0.00000070  0.05897007
                   Y -0.00001476  0.02824720  0.00000275  0.00000247 -0.09632453
                   Z  0.01920384  0.00000076 -0.05413918 -0.11537595 -0.00000115
  4   H            X -0.00002725 -0.27557545 -0.00000048 -0.00000149  0.23951773
                   Y -0.00001691 -0.14273067 -0.00000116 -0.00000198  0.13198720
                   Z  0.54420078 -0.00000542  0.54210463 -0.04779151 -0.00000009
  5   H            X  0.00005213  0.14250601 -0.00000553 -0.00000337 -0.31296770
                   Y -0.00001056 -0.07276587 -0.00000043 -0.00000085  0.07123812
                   Z  0.64133352  0.00000109 -0.32086135  0.05265613 -0.00000082
  6   H            X -0.00001014 -0.23660921 -0.00000166 -0.00000202  0.19578246
                   Y  0.00000244 -0.22047643 -0.00000308 -0.00000326  0.28867794
                   Z -0.06170831 -0.00000218  0.66625657 -0.34369860  0.00000216
  7   H            X  0.03550342 -0.25269409 -0.08642950 -0.16846222 -0.25206177
                   Y  0.07782073 -0.06882196 -0.19209241 -0.43146769 -0.14811124
                   Z -0.02302936 -0.03930223  0.05867410  0.13515666 -0.05321783
  8   H            X -0.03553383 -0.25269691  0.08643314  0.16846773 -0.25205841
                   Y -0.07785557 -0.06882641  0.19209840  0.43147397 -0.14809972
                   Z -0.02302795  0.03930128  0.05867416  0.13515635  0.05322219
  9   H            X -0.00000629  0.18584691  0.00000158  0.00000056  0.09255104
                   Y -0.00000597  0.57438747  0.00000297  0.00000035  0.23194687
                   Z -0.03612630 -0.00000208  0.10169838  0.24121191  0.00000032

 TRANS. SAYVETZ    X  0.00001134  0.00000051 -0.00001943 -0.00002097 -0.00004092
                   Y  0.00001144 -0.00012068 -0.00001937 -0.00002112 -0.00000266
                   Z  0.00001082 -0.00000010  0.00005818  0.00002997 -0.00000028
               TOTAL  0.00001941  0.00012068  0.00006433  0.00004224  0.00004101

   ROT. SAYVETZ    X -0.00214418  0.00000041 -0.00031935 -0.00244523  0.00000002
                   Y -0.00090160 -0.00000091  0.00207037  0.00227008 -0.00000137
                   Z  0.00001279 -0.00200438 -0.00002140 -0.00002317 -0.00202806
               TOTAL  0.00232606  0.00200438  0.00209496  0.00333661  0.00202807

                           16          17          18          19          20
       FREQUENCY:      1344.44     1434.12     1471.40     1520.69     1523.18  
        SYMMETRY:         A'          A'          A'          A'          A'' 
    REDUCED MASS:      1.24468     1.18210     1.22261     1.05068     1.04407
    IR INTENSITY:      0.01496     0.02132     0.04237     0.10979     0.12181

  1   C            X -0.08028072  0.00203067 -0.03052793 -0.01760703 -0.00000034
                   Y  0.06126237 -0.00265243  0.01426689 -0.00846131 -0.00000079
                   Z -0.00000001  0.00000000 -0.00000001 -0.00000009  0.00189214
  2   C            X  0.04254443 -0.03669695 -0.09205740 -0.00057836 -0.00000141
                   Y -0.06892276 -0.00389353 -0.05142122  0.01931509  0.00000041
                   Z  0.00000004 -0.00000002  0.00000006  0.00000071 -0.01626192
  3   C            X  0.00208163 -0.03677708  0.04135493 -0.05433088 -0.00000186
                   Y -0.02343265 -0.10337533  0.04491676  0.00191717  0.00000029
                   Z -0.00000007  0.00000001  0.00000006  0.00000208 -0.05376311
  4   H            X -0.35357492  0.18300053  0.40605913  0.05290553  0.00000245
                   Y -0.14738686  0.12658661  0.33469279  0.04613543  0.00000123
                   Z -0.00000013 -0.00000001 -0.00000008  0.00000011 -0.00462787
  5   H            X -0.01161562  0.19101697  0.56812853  0.02709769  0.00000048
                   Y  0.01674412 -0.08376825 -0.25424624 -0.02947593 -0.00000130
                   Z -0.00000005  0.00000004 -0.00000002 -0.00000038  0.00990590
  6   H            X  0.69695150 -0.01338203  0.20845217  0.00392609  0.00000173
                   Y  0.37860351  0.01809961  0.15674111  0.02342359  0.00000272
                   Z  0.00000038 -0.00000000  0.00000026  0.00000016  0.00378700
  7   H            X  0.03760574  0.22260936 -0.11661988  0.37571445  0.46719194
                   Y  0.03015107  0.39713023 -0.10815014 -0.32816604  0.08668906
                   Z -0.02321584 -0.24146085  0.05406894  0.33686885  0.04816109
  8   H            X  0.03760633  0.22260887 -0.11661784  0.37575271 -0.46716207
                   Y  0.03015230  0.39713006 -0.10814908 -0.32815782 -0.08671707
                   Z  0.02321629  0.24146093 -0.05406888 -0.33687241  0.04813297
  9   H            X  0.01758028  0.04478900  0.01781046  0.02807123  0.00000151
                   Y  0.06194468  0.45372860 -0.11335847  0.46419488  0.00001929
                   Z -0.00000035  0.00000041 -0.00000162 -0.00002894  0.70591381

 TRANS. SAYVETZ    X  0.00001939 -0.00002123  0.00001625  0.00002910 -0.00000704
                   Y -0.00001073  0.00009357 -0.00004440  0.00001576 -0.00000708
                   Z -0.00000003  0.00000037 -0.00000014 -0.00000053  0.00002642
               TOTAL  0.00002216  0.00009595  0.00004728  0.00003309  0.00002824

   ROT. SAYVETZ    X -0.00000023 -0.00000077  0.00000037  0.00000078  0.00149213
                   Y  0.00000033  0.00000079 -0.00000035 -0.00000110 -0.00099984
                   Z -0.00027436  0.00235869  0.00020777  0.00078847 -0.00000731
               TOTAL  0.00027436  0.00235869  0.00020777  0.00078847  0.00179616

                           21          22          23          24          25
       FREQUENCY:      1729.88     3042.74     3094.27     3119.20     3146.87  
        SYMMETRY:         A'          A'          A''         A'          A'  
    REDUCED MASS:      4.34653     1.03764     1.10102     1.09885     1.06339
    IR INTENSITY:      0.18924     0.52851     0.52655     0.34884     0.64702

  1   C            X -0.17479845  0.00093961  0.00000003  0.00342141  0.05389228
                   Y -0.02449848 -0.00006125  0.00000001  0.00139955  0.00002207
                   Z -0.00000001  0.00000000  0.00041722  0.00000000  0.00000000
  2   C            X  0.18846695 -0.00080586  0.00000001  0.01302192  0.01819430
                   Y  0.05115924 -0.00010972 -0.00000002 -0.01661355 -0.03457506
                   Z  0.00000005  0.00000000 -0.00023526 -0.00000000 -0.00000000
  3   C            X -0.02119186  0.00991621  0.00000009 -0.07751576  0.01645011
                   Y -0.01178865  0.05014123 -0.00000005  0.03267549 -0.00719595
                   Z -0.00000067 -0.00000002 -0.08774853 -0.00000006  0.00000029
  4   H            X  0.10908973 -0.00887472 -0.00000071 -0.02320961 -0.37363671
                   Y  0.22397318  0.01390052  0.00000106  0.03390878  0.49283247
                   Z -0.00000100  0.00000000 -0.00278790  0.00000001  0.00000010
  5   H            X  0.12003160 -0.00385778 -0.00000136 -0.02434126 -0.21782090
                   Y -0.18637561 -0.01326406 -0.00000297 -0.05467169 -0.48645747
                   Z  0.00000032  0.00000000  0.00090816 -0.00000001 -0.00000004
  6   H            X -0.08814719  0.00660557 -0.00000018 -0.14648511 -0.27268832
                   Y -0.16632621 -0.00705135  0.00000026  0.20954766  0.39745641
                   Z  0.00000206 -0.00000000 -0.00438856 -0.00000001 -0.00000014
  7   H            X -0.00791769  0.15225355 -0.16804477  0.05132133 -0.01199695
                   Y  0.02590874 -0.32769970  0.36847631 -0.14146362  0.03508616
                   Z -0.01946928 -0.50999629  0.53482240 -0.22756770  0.05420233
  8   H            X -0.00792296  0.15225364  0.16804456  0.05132160 -0.01199774
                   Y  0.02591333 -0.32769988 -0.36847577 -0.14146423  0.03508804
                   Z  0.01947204  0.50999656  0.53482151  0.22756851 -0.05420572
  9   H            X -0.03550555 -0.41804582 -0.00000085  0.81857280 -0.16605503
                   Y -0.10029711  0.06680755  0.00000014 -0.11377384  0.02310262
                   Z  0.00000308 -0.00000001 -0.02070404 -0.00000001  0.00000003

 TRANS. SAYVETZ    X  0.00004897 -0.00000242 -0.00000174  0.00000084 -0.00000434
                   Y -0.00012505 -0.00001986 -0.00000166 -0.00000600  0.00001087
                   Z -0.00000035  0.00000001  0.00003165  0.00000003  0.00000003
               TOTAL  0.00013430  0.00002000  0.00003174  0.00000606  0.00001170

   ROT. SAYVETZ    X  0.00000059  0.00000002  0.00031161 -0.00000006 -0.00000004
                   Y -0.00000139 -0.00000002 -0.00023202  0.00000010  0.00000009
                   Z  0.00097534 -0.00031436 -0.00000199  0.00002501 -0.00014866
               TOTAL  0.00097534  0.00031436  0.00038851  0.00002501  0.00014866

                           26          27
       FREQUENCY:      3154.28     3229.13  
        SYMMETRY:         A'          A'  
    REDUCED MASS:      1.08915     1.11495
    IR INTENSITY:      0.21451     0.56068

  1   C            X -0.03983997 -0.00144939
                   Y  0.01445069 -0.09254558
                   Z -0.00000000 -0.00000000
  2   C            X  0.04435359  0.00817242
                   Y -0.05251480 -0.01028181
                   Z  0.00000000  0.00000001
  3   C            X  0.01589332  0.00112118
                   Y -0.00438779  0.00044410
                   Z -0.00000009 -0.00000021
  4   H            X  0.29722820 -0.33900305
                   Y -0.38560176  0.42061936
                   Z -0.00000004 -0.00000015
  5   H            X  0.08594545  0.33066674
                   Y  0.19630485  0.68506526
                   Z  0.00000001  0.00000006
  6   H            X -0.44048351 -0.07586555
                   Y  0.63376903  0.10835049
                   Z  0.00000005  0.00000025
  7   H            X -0.00796024  0.00146040
                   Y  0.02095600  0.00206414
                   Z  0.03550634  0.00179974
  8   H            X -0.00796005  0.00146068
                   Y  0.02095552  0.00206335
                   Z -0.03550530 -0.00179749
  9   H            X -0.16976097 -0.01212985
                   Y  0.01907366  0.00089687
                   Z -0.00000000  0.00000000

 TRANS. SAYVETZ    X -0.00000932 -0.00001108
                   Y -0.00001036 -0.00000079
                   Z -0.00000001 -0.00000005
               TOTAL  0.00001393  0.00001110

   ROT. SAYVETZ    X -0.00000008  0.00000007
                   Y -0.00000012 -0.00000018
                   Z  0.00013916  0.00025555
               TOTAL  0.00013916  0.00025555

 REFERENCE ON SAYVETZ CONDITIONS - A. SAYVETZ, J.CHEM.PHYS., 7, 383-389(1939).

 NOTE - THE MODES J,K ARE ORTHONORMALIZED ACCORDING TO
 SUM ON I   M(I) * (X(I,J)*X(I,K) + Y(I,J)*Y(I,K) + Z(I,J)*Z(I,K)) = DELTA(J,K)

  MODE FREQ(CM**-1)  SYMMETRY  RED. MASS  IR INTENS.
     1     218.280    A''      1.097154    0.013144
     2       0.469    A''      4.675473    0.000000
     3       0.089    A'       4.663714    0.000000
     4       0.423    A''      4.677835    0.000000
     5       9.322    A''      2.369265    0.001653
     6       9.731    A'       2.595073    0.001865
     7      15.009    A''      1.556450    0.000376
     8     415.342    A'       1.989443    0.010156
     9     591.014    A''      1.310635    0.272787
    10     924.111    A'       2.040376    0.011084
    11     931.634    A''      1.332541    0.726452
    12     981.691    A'       1.327734    0.013786
    13    1023.735    A''      1.052054    0.405137
    14    1066.756    A''      1.479305    0.002493
    15    1184.342    A'       1.734427    0.140439
    16    1344.441    A'       1.244682    0.014957
    17    1434.125    A'       1.182098    0.021319
    18    1471.398    A'       1.222608    0.042375
    19    1520.686    A'       1.050679    0.109791
    20    1523.178    A''      1.044074    0.121810
    21    1729.877    A'       4.346527    0.189245
    22    3042.743    A'       1.037640    0.528506
    23    3094.268    A''      1.101015    0.526552
    24    3119.199    A'       1.098846    0.348841
    25    3146.873    A'       1.063385    0.647016
    26    3154.280    A'       1.089151    0.214514
    27    3229.126    A'       1.114949    0.560677

     -------------------------------
     THERMOCHEMISTRY AT T=  298.15 K
     -------------------------------

 USING IDEAL GAS, RIGID ROTOR, HARMONIC NORMAL MODE APPROXIMATIONS.
 P=  1.01325E+05 PASCAL.
 ALL FREQUENCIES ARE SCALED BY   1.00000
 THE MOMENTS OF INERTIA ARE (IN AMU*BOHR**2)
             38.83096           196.36773           223.97808
 THE ROTATIONAL SYMMETRY NUMBER IS  1.0
 THE ROTATIONAL CONSTANTS ARE (IN GHZ)
     46.43430     9.18220     8.05029
   1 IMAGINARY FREQUENCY VIBRATION(S) IS(ARE) EXCLUDED
     FROM THE FOLLOWING THERMOCHEMICAL ANALYSIS.
      8 -     27 VIBRATIONAL MODES ARE USED IN THERMOCHEMISTRY.
 THE HARMONIC ZERO POINT ENERGY IS (SCALED BY   1.000)
        0.079574 HARTREE/MOLECULE    17464.410356 CM**-1/MOLECULE 
       49.933305 KCAL/MOL              208.920948 KJ/MOL

               Q               LN Q
 ELEC.     1.00000E+00       0.000000
 TRANS.    1.07166E+07      16.187301
 ROT.      1.47934E+04       9.601937
 VIB.      1.29308E+00       0.257026
 TOT.      2.04998E+11      26.046264

              E         H         G         CV        CP        S
           KJ/MOL    KJ/MOL    KJ/MOL   J/MOL-K   J/MOL-K   J/MOL-K
 ELEC.      0.000     0.000     0.000     0.000     0.000     0.000
 TRANS.     3.718     6.197   -40.127    12.472    20.786   155.374
 ROT.       3.718     3.718   -23.803    12.472    12.472    92.306
 VIB.     210.781   210.781   208.284    21.612    21.612     8.376
 TOTAL    218.218   220.697   144.354    46.555    54.870   256.055
 VIB. THERMAL CORRECTION E(T)-E(0) = H(T)-H(0) =      1860.011 J/MOL

              E         H         G         CV        CP        S
         KCAL/MOL  KCAL/MOL  KCAL/MOL CAL/MOL-K CAL/MOL-K CAL/MOL-K
 ELEC.      0.000     0.000     0.000     0.000     0.000     0.000
 TRANS.     0.889     1.481    -9.591     2.981     4.968    37.135
 ROT.       0.889     0.889    -5.689     2.981     2.981    22.062
 VIB.      50.378    50.378    49.781     5.165     5.165     2.002
 TOTAL     52.155    52.748    34.501    11.127    13.114    61.199
 VIB. THERMAL CORRECTION E(T)-E(0) = H(T)-H(0) =       444.553 CAL/MOL
 ......END OF NORMAL COORDINATE ANALYSIS......
 STEP CPU TIME =     0.00 TOTAL CPU TIME =        458.0 (      7.6 MIN)
 TOTAL WALL CLOCK TIME=        482.5 SECONDS, CPU UTILIZATION IS    94.92%
               1075896  WORDS OF DYNAMIC MEMORY USED
 EXECUTION OF GAMESS TERMINATED NORMALLY Tue Oct  4 20:52:26 2022
 DDI: 263640 bytes (0.3 MB / 0 MWords) used by master data server.

 ----------------------------------------
 CPU timing information for all processes
 ========================================
 0: 455.228 + 2.768 = 457.997
 ----------------------------------------
 ddikick.x: exited gracefully.
----- accounting info -----
Files used on the master node chemcompute-node-0.novalocal were:
-rw-r--r--. 1 chemcomp chemcomp      958 Oct  4 20:44 /scratch/120771/460725.F05
-rw-rw-r--. 1 chemcomp chemcomp 65536000 Oct  4 20:52 /scratch/120771/460725.F10
-rw-rw-r--. 1 chemcomp chemcomp  4614952 Oct  4 20:52 /scratch/120771/460725.F22
Tue Oct  4 20:52:29 UTC 2022
0.097u 0.040s 8:05.87 0.0%	0+0k 8+208io 0pf+0w
Finishing Up...
Looking for IR data...
Looking for Raman data...
vibramans not found
Looking for thermodynamics data...
Looking for UV-Vis data...
chemcompute.org
{'UTCtimestamp': '2022-10-04T20:52:31.115998', 'cluster': 'jetstream2', 'clusterJobNumber': '120771', 'status': 'COMPLETE', 'nodeList': 'chemcompute-node-0'}
120771
